 Entering Gaussian System, Link 0=/opt/system/app/gaussian16/c02/g16.exe
 Input=/tmp/ROSDSFDQCJNGOL-UHFFFAOYSA-O/main.gjf
 Output=/tmp/ROSDSFDQCJNGOL-UHFFFAOYSA-O/main.out
 Initial command:
 /opt/system/app/gaussian16/c02/l1.exe "./Gau-1064672.inp" -scrdir="./"
 Entering Link 1 = /opt/system/app/gaussian16/c02/l1.exe PID=   1064706.
  
 Copyright (c) 1988-2021, Gaussian, Inc.  All Rights Reserved.
  
 This is part of the Gaussian(R) 16 program.  It is based on
 the Gaussian(R) 09 system (copyright 2009, Gaussian, Inc.),
 the Gaussian(R) 03 system (copyright 2003, Gaussian, Inc.),
 the Gaussian(R) 98 system (copyright 1998, Gaussian, Inc.),
 the Gaussian(R) 94 system (copyright 1995, Gaussian, Inc.),
 the Gaussian 92(TM) system (copyright 1992, Gaussian, Inc.),
 the Gaussian 90(TM) system (copyright 1990, Gaussian, Inc.),
 the Gaussian 88(TM) system (copyright 1988, Gaussian, Inc.),
 the Gaussian 86(TM) system (copyright 1986, Carnegie Mellon
 University), and the Gaussian 82(TM) system (copyright 1983,
 Carnegie Mellon University). Gaussian is a federally registered
 trademark of Gaussian, Inc.
  
 This software contains proprietary and confidential information,
 including trade secrets, belonging to Gaussian, Inc.
  
 This software is provided under written license and may be
 used, copied, transmitted, or stored only in accord with that
 written license.
  
 The following legend is applicable only to US Government
 contracts under FAR:
  
                    RESTRICTED RIGHTS LEGEND
  
 Use, reproduction and disclosure by the US Government is
 subject to restrictions as set forth in subparagraphs (a)
 and (c) of the Commercial Computer Software - Restricted
 Rights clause in FAR 52.227-19.
  
 Gaussian, Inc.
 340 Quinnipiac St., Bldg. 40, Wallingford CT 06492
  
  
 ---------------------------------------------------------------
 Warning -- This program may not be used in any manner that
 competes with the business of Gaussian, Inc. or will provide
 assistance to any competitor of Gaussian, Inc.  The licensee
 of this program is prohibited from giving any competitor of
 Gaussian, Inc. access to this program.  By using this program,
 the user acknowledges that Gaussian, Inc. is engaged in the
 business of creating and licensing software in the field of
 computational chemistry and represents and warrants to the
 licensee that it is not a competitor of Gaussian, Inc. and that
 it will not use this program in any manner prohibited above.
 ---------------------------------------------------------------
  

 Cite this work as:
 Gaussian 16, Revision C.02,
 M. J. Frisch, G. W. Trucks, H. B. Schlegel, G. E. Scuseria, 
 M. A. Robb, J. R. Cheeseman, G. Scalmani, V. Barone, 
 G. A. Petersson, H. Nakatsuji, X. Li, M. Caricato, A. V. Marenich, 
 J. Bloino, B. G. Janesko, R. Gomperts, B. Mennucci, H. P. Hratchian, 
 J. V. Ortiz, A. F. Izmaylov, J. L. Sonnenberg, D. Williams-Young, 
 F. Ding, F. Lipparini, F. Egidi, J. Goings, B. Peng, A. Petrone, 
 T. Henderson, D. Ranasinghe, V. G. Zakrzewski, J. Gao, N. Rega, 
 G. Zheng, W. Liang, M. Hada, M. Ehara, K. Toyota, R. Fukuda, 
 J. Hasegawa, M. Ishida, T. Nakajima, Y. Honda, O. Kitao, H. Nakai, 
 T. Vreven, K. Throssell, J. A. Montgomery, Jr., J. E. Peralta, 
 F. Ogliaro, M. J. Bearpark, J. J. Heyd, E. N. Brothers, K. N. Kudin, 
 V. N. Staroverov, T. A. Keith, R. Kobayashi, J. Normand, 
 K. Raghavachari, A. P. Rendell, J. C. Burant, S. S. Iyengar, 
 J. Tomasi, M. Cossi, J. M. Millam, M. Klene, C. Adamo, R. Cammi, 
 J. W. Ochterski, R. L. Martin, K. Morokuma, O. Farkas, 
 J. B. Foresman, and D. J. Fox, Gaussian, Inc., Wallingford CT, 2019.
 
 ******************************************
 Gaussian 16:  ES64L-G16RevC.02  7-Dec-2021
                25-Apr-2026 
 ******************************************
 %rwf=main.rwf
 %nprocshared=56
 Will use up to   56 processors via shared memory.
 %mem=56GB
 %chk=main.chk
 ----------------------------------------------------------------------
 #p opt=tight freq b3lyp/6-31++g(d,p) pop=(mk,mbs,saveesp) geom=connect
 ivity polar extralinks=l608
 ----------------------------------------------------------------------
 1/7=10,18=20,19=15,26=3,38=1,57=2/1,3;
 2/9=110,12=2,17=6,18=5,40=1/2;
 3/5=1,6=6,7=1111,11=2,25=1,30=1,71=1,74=-5/1,2,3;
 4//1;
 5/5=2,38=5,98=1/2;
 6/7=2,8=2,9=2,10=2,15=8,20=1,27=100,28=1/1,2,8;
 7//1,2,3,16;
 1/7=10,18=20,19=15,26=3/3(2);
 2/9=110/2;
 99/20=2/99;
 2/9=110/2;
 3/5=1,6=6,7=1111,11=2,25=1,30=1,71=1,74=-5/1,2,3;
 4/5=5,16=3,69=1/1;
 5/5=2,38=5,98=1/2;
 7//1,2,3,16;
 1/7=10,18=20,19=15,26=3/3(-5);
 2/9=110/2;
 6/7=2,8=2,9=2,10=2,15=8,19=2,20=1,27=100,28=1/1,2,8;
 99/9=1,20=2/99;
 Leave Link    1 at Sat Apr 25 17:05:28 2026, MaxMem=  7516192768 cpu:               0.3 elap:               0.0
 (Enter /opt/system/app/gaussian16/c02/l101.exe)
 ---------------------------
 ROSDSFDQCJNGOL-UHFFFAOYSA-O
 ---------------------------
 Symbolic Z-matrix:
 Charge =  1 Multiplicity = 1
 N                    -0.00011   0.54076   0.0001 
 C                     1.26939  -0.27613  -0.00004 
 C                    -1.26928  -0.27624  -0.00006 
 H                     2.12339   0.40178   0.00009 
 H                     1.27791  -0.89873   0.89459 
 H                     1.27792  -0.89841  -0.89491 
 H                    -2.12352   0.40139   0.00007 
 H                    -1.27751  -0.89855  -0.89491 
 H                    -1.27752  -0.89888   0.89457 
 H                    -0.0003    1.16003   0.81767 
 H                    -0.00029   1.16033  -0.81725 
 
 ITRead=  0  0  0  0  0  0  0  0  0  0  0
 MicOpt= -1 -1 -1 -1 -1 -1 -1 -1 -1 -1 -1
 NAtoms=     11 NQM=       11 NQMF=       0 NMMI=      0 NMMIF=      0
                NMic=       0 NMicF=      0.
                    Isotopes and Nuclear Properties:
 (Nuclear quadrupole moments (NQMom) in fm**2, nuclear magnetic moments (NMagM)
  in nuclear magnetons)

  Atom         1           2           3           4           5           6           7           8           9          10
 IAtWgt=          14          12          12           1           1           1           1           1           1           1
 AtmWgt=  14.0030740  12.0000000  12.0000000   1.0078250   1.0078250   1.0078250   1.0078250   1.0078250   1.0078250   1.0078250
 NucSpn=           2           0           0           1           1           1           1           1           1           1
 AtZEff=  -0.0000000  -0.0000000  -0.0000000  -0.0000000  -0.0000000  -0.0000000  -0.0000000  -0.0000000  -0.0000000  -0.0000000
 NQMom=    2.0440000   0.0000000   0.0000000   0.0000000   0.0000000   0.0000000   0.0000000   0.0000000   0.0000000   0.0000000
 NMagM=    0.4037610   0.0000000   0.0000000   2.7928460   2.7928460   2.7928460   2.7928460   2.7928460   2.7928460   2.7928460
 AtZNuc=   7.0000000   6.0000000   6.0000000   1.0000000   1.0000000   1.0000000   1.0000000   1.0000000   1.0000000   1.0000000

  Atom        11
 IAtWgt=           1
 AtmWgt=   1.0078250
 NucSpn=           1
 AtZEff=  -0.0000000
 NQMom=    0.0000000
 NMagM=    2.7928460
 AtZNuc=   1.0000000
 Leave Link  101 at Sat Apr 25 17:05:29 2026, MaxMem=  7516192768 cpu:               0.4 elap:               0.2
 (Enter /opt/system/app/gaussian16/c02/l103.exe)

 GradGradGradGradGradGradGradGradGradGradGradGradGradGradGradGradGradGrad
 Berny optimization.
 Initialization pass.
                           ----------------------------
                           !    Initial Parameters    !
                           ! (Angstroms and Degrees)  !
 --------------------------                            --------------------------
 ! Name  Definition              Value          Derivative Info.                !
 --------------------------------------------------------------------------------
 ! R1    R(1,2)                  1.5096         estimate D2E/DX2                !
 ! R2    R(1,3)                  1.5094         estimate D2E/DX2                !
 ! R3    R(1,10)                 1.0256         estimate D2E/DX2                !
 ! R4    R(1,11)                 1.0256         estimate D2E/DX2                !
 ! R5    R(2,4)                  1.0904         estimate D2E/DX2                !
 ! R6    R(2,5)                  1.09           estimate D2E/DX2                !
 ! R7    R(2,6)                  1.09           estimate D2E/DX2                !
 ! R8    R(3,7)                  1.0904         estimate D2E/DX2                !
 ! R9    R(3,8)                  1.09           estimate D2E/DX2                !
 ! R10   R(3,9)                  1.09           estimate D2E/DX2                !
 ! A1    A(2,1,3)              114.4695         estimate D2E/DX2                !
 ! A2    A(2,1,10)             109.0839         estimate D2E/DX2                !
 ! A3    A(2,1,11)             109.0841         estimate D2E/DX2                !
 ! A4    A(3,1,10)             109.0714         estimate D2E/DX2                !
 ! A5    A(3,1,11)             109.0716         estimate D2E/DX2                !
 ! A6    A(10,1,11)            105.6948         estimate D2E/DX2                !
 ! A7    A(1,2,4)              108.7972         estimate D2E/DX2                !
 ! A8    A(1,2,5)              108.3959         estimate D2E/DX2                !
 ! A9    A(1,2,6)              108.3957         estimate D2E/DX2                !
 ! A10   A(4,2,5)              110.4211         estimate D2E/DX2                !
 ! A11   A(4,2,6)              110.4211         estimate D2E/DX2                !
 ! A12   A(5,2,6)              110.3458         estimate D2E/DX2                !
 ! A13   A(1,3,7)              108.8064         estimate D2E/DX2                !
 ! A14   A(1,3,8)              108.3885         estimate D2E/DX2                !
 ! A15   A(1,3,9)              108.3887         estimate D2E/DX2                !
 ! A16   A(7,3,8)              110.4253         estimate D2E/DX2                !
 ! A17   A(7,3,9)              110.4253         estimate D2E/DX2                !
 ! A18   A(8,3,9)              110.3423         estimate D2E/DX2                !
 ! D1    D(3,1,2,4)           -179.9997         estimate D2E/DX2                !
 ! D2    D(3,1,2,5)            -59.8922         estimate D2E/DX2                !
 ! D3    D(3,1,2,6)             59.8928         estimate D2E/DX2                !
 ! D4    D(10,1,2,4)           -57.4989         estimate D2E/DX2                !
 ! D5    D(10,1,2,5)            62.6086         estimate D2E/DX2                !
 ! D6    D(10,1,2,6)          -177.6064         estimate D2E/DX2                !
 ! D7    D(11,1,2,4)            57.4991         estimate D2E/DX2                !
 ! D8    D(11,1,2,5)           177.6067         estimate D2E/DX2                !
 ! D9    D(11,1,2,6)           -62.6084         estimate D2E/DX2                !
 ! D10   D(2,1,3,7)            179.9997         estimate D2E/DX2                !
 ! D11   D(2,1,3,8)            -59.8866         estimate D2E/DX2                !
 ! D12   D(2,1,3,9)             59.8859         estimate D2E/DX2                !
 ! D13   D(10,1,3,7)            57.4921         estimate D2E/DX2                !
 ! D14   D(10,1,3,8)           177.6058         estimate D2E/DX2                !
 ! D15   D(10,1,3,9)           -62.6216         estimate D2E/DX2                !
 ! D16   D(11,1,3,7)           -57.4923         estimate D2E/DX2                !
 ! D17   D(11,1,3,8)            62.6213         estimate D2E/DX2                !
 ! D18   D(11,1,3,9)          -177.6061         estimate D2E/DX2                !
 --------------------------------------------------------------------------------
 Trust Radius=3.00D-01 FncErr=1.00D-07 GrdErr=1.00D-06 EigMax=2.50D+02 EigMin=1.00D-04
 Number of steps in this run=     56 maximum allowed number of steps=    100.
 GradGradGradGradGradGradGradGradGradGradGradGradGradGradGradGradGradGrad

 Leave Link  103 at Sat Apr 25 17:05:29 2026, MaxMem=  7516192768 cpu:               0.2 elap:               0.0
 (Enter /opt/system/app/gaussian16/c02/l202.exe)
                          Input orientation:                          
 ---------------------------------------------------------------------
 Center     Atomic      Atomic             Coordinates (Angstroms)
 Number     Number       Type             X           Y           Z
 ---------------------------------------------------------------------
      1          7           0       -0.000109    0.540756    0.000096
      2          6           0        1.269393   -0.276132   -0.000042
      3          6           0       -1.269280   -0.276242   -0.000056
      4          1           0        2.123394    0.401777    0.000088
      5          1           0        1.277905   -0.898733    0.894594
      6          1           0        1.277918   -0.898406   -0.894906
      7          1           0       -2.123525    0.401386    0.000065
      8          1           0       -1.277510   -0.898554   -0.894912
      9          1           0       -1.277516   -0.898881    0.894571
     10          1           0       -0.000295    1.160030    0.817671
     11          1           0       -0.000286    1.160326   -0.817254
 ---------------------------------------------------------------------
                    Distance matrix (angstroms):
                    1          2          3          4          5
     1  N    0.000000
     2  C    1.509616   0.000000
     3  C    1.509397   2.538673   0.000000
     4  H    2.128046   1.090357   3.459761   0.000000
     5  H    2.122634   1.089990   2.770568   1.790620   0.000000
     6  H    2.122633   1.089990   2.770571   1.790620   1.789500
     7  H    2.127985   3.459902   1.090373   4.246919   3.749696
     8  H    2.122359   2.770364   1.090003   3.749404   3.119692
     9  H    2.122359   2.770360   1.090002   3.749400   2.555421
    10  H    1.025636   2.084064   2.083717   2.398634   2.424504
    11  H    1.025635   2.084066   2.083719   2.398637   2.967140
                    6          7          8          9         10
     6  H    0.000000
     7  H    3.749700   0.000000
     8  H    2.555428   1.790690   0.000000
     9  H    3.119691   1.790689   1.789483   0.000000
    10  H    2.967138   2.398359   2.966814   2.424113   0.000000
    11  H    2.424503   2.398363   2.424112   2.966816   1.634925
                   11
    11  H    0.000000
 Stoichiometry    C2H8N(1+)
 Framework group  C1[X(C2H8N)]
 Deg. of freedom    27
 Full point group                 C1      NOp   1
 Largest Abelian subgroup         C1      NOp   1
 Largest concise Abelian subgroup C1      NOp   1
                         Standard orientation:                         
 ---------------------------------------------------------------------
 Center     Atomic      Atomic             Coordinates (Angstroms)
 Number     Number       Type             X           Y           Z
 ---------------------------------------------------------------------
      1          7           0        0.000109    0.540756   -0.000096
      2          6           0       -1.269393   -0.276132    0.000042
      3          6           0        1.269280   -0.276242    0.000056
      4          1           0       -2.123394    0.401777   -0.000088
      5          1           0       -1.277905   -0.898733   -0.894594
      6          1           0       -1.277918   -0.898406    0.894906
      7          1           0        2.123525    0.401387   -0.000065
      8          1           0        1.277510   -0.898554    0.894912
      9          1           0        1.277516   -0.898881   -0.894571
     10          1           0        0.000295    1.160030   -0.817671
     11          1           0        0.000286    1.160326    0.817254
 ---------------------------------------------------------------------
 Rotational constants (GHZ):          30.1024770           8.5783268           7.5935731
 Leave Link  202 at Sat Apr 25 17:05:29 2026, MaxMem=  7516192768 cpu:               0.4 elap:               0.0
 (Enter /opt/system/app/gaussian16/c02/l301.exe)
 Standard basis: 6-31++G(d,p) (6D, 7F)
 Ernie: Thresh=  0.10000D-02 Tol=  0.10000D-05 Strict=F.
 There are   105 symmetry adapted cartesian basis functions of A   symmetry.
 There are   105 symmetry adapted basis functions of A   symmetry.
   105 basis functions,   160 primitive gaussians,   105 cartesian basis functions
    13 alpha electrons       13 beta electrons
       nuclear repulsion energy        90.6352906960 Hartrees.
 IExCor=  402 DFT=T Ex+Corr=B3LYP ExCW=0 ScaHFX=  0.200000
 ScaDFX=  0.800000  0.720000  1.000000  0.810000 ScalE2=  1.000000  1.000000
 IRadAn=      5 IRanWt=     -1 IRanGd=            0 ICorTp=0 IEmpDi=  4
 NAtoms=   11 NActive=   11 NUniq=   11 SFac= 1.00D+00 NAtFMM=   60 NAOKFM=F Big=F
 Integral buffers will be    131072 words long.
 Raffenetti 2 integral format.
 Two-electron integral symmetry is turned on.
 Leave Link  301 at Sat Apr 25 17:05:29 2026, MaxMem=  7516192768 cpu:               0.2 elap:               0.1
 (Enter /opt/system/app/gaussian16/c02/l302.exe)
 NPDir=0 NMtPBC=     1 NCelOv=     1 NCel=       1 NClECP=     1 NCelD=      1
         NCelK=      1 NCelE2=     1 NClLst=     1 CellRange=     0.0.
 One-electron integrals computed using PRISM.
 One-electron integral symmetry used in STVInt
 NBasis=   105 RedAO= T EigKep=  7.82D-04  NBF=   105
 NBsUse=   105 1.00D-06 EigRej= -1.00D+00 NBFU=   105
 Precomputing XC quadrature grid using
 IXCGrd= 4 IRadAn=           5 IRanWt=          -1 IRanGd=           0 AccXCQ= 0.00D+00.
 Generated NRdTot=       0 NPtTot=           0 NUsed=           0 NTot=          32
 NSgBfM=   105   105   105   105   105 MxSgAt=    11 MxSgA2=    11.
 Leave Link  302 at Sat Apr 25 17:05:29 2026, MaxMem=  7516192768 cpu:               4.8 elap:               0.1
 (Enter /opt/system/app/gaussian16/c02/l303.exe)
 DipDrv:  MaxL=1.
 Leave Link  303 at Sat Apr 25 17:05:29 2026, MaxMem=  7516192768 cpu:               0.5 elap:               0.1
 (Enter /opt/system/app/gaussian16/c02/l401.exe)
 ExpMin= 3.60D-02 ExpMax= 4.17D+03 ExpMxC= 6.27D+02 IAcc=3 IRadAn=         5 AccDes= 0.00D+00
 Harris functional with IExCor=  402 and IRadAn=       5 diagonalized for initial guess.
 HarFok:  IExCor=  402 AccDes= 0.00D+00 IRadAn=         5 IDoV= 1 UseB2=F ITyADJ=14
 ICtDFT=  3500011 ScaDFX=  1.000000  1.000000  1.000000  1.000000
 FoFCou: FMM=F IPFlag=           0 FMFlag=      100000 FMFlg1=           0
         NFxFlg=           0 DoJE=T BraDBF=F KetDBF=T FulRan=T
         wScrn=  0.000000 ICntrl=       500 IOpCl=  0 I1Cent=   200000004 NGrid=           0
         NMat0=    1 NMatS0=      1 NMatT0=    0 NMatD0=    1 NMtDS0=    0 NMtDT0=    0
 Petite list used in FoFCou.
 Harris En= -135.605047234584    
 JPrj=0 DoOrth=F DoCkMO=F.
 Leave Link  401 at Sat Apr 25 17:05:29 2026, MaxMem=  7516192768 cpu:               8.8 elap:               0.2
 (Enter /opt/system/app/gaussian16/c02/l502.exe)
 Keep R1 ints in memory in canonical form, NReq=67616555.
 FoFCou: FMM=F IPFlag=           0 FMFlag=           0 FMFlg1=           0
         NFxFlg=           0 DoJE=F BraDBF=F KetDBF=F FulRan=T
         wScrn=  0.000000 ICntrl=       600 IOpCl=  0 I1Cent=           0 NGrid=           0
         NMat0=    1 NMatS0=   5565 NMatT0=    0 NMatD0=    1 NMtDS0=    0 NMtDT0=    0
 Symmetry not used in FoFCou.
 Two-electron integral symmetry not used.
 Closed shell SCF:
 Using DIIS extrapolation, IDIIS=  1040.
 NGot=  7516192768 LenX=  7500675901 LenY=  7500664435
 Requested convergence on RMS density matrix=1.00D-08 within 128 cycles.
 Requested convergence on MAX density matrix=1.00D-06.
 Requested convergence on             energy=1.00D-06.
 No special actions if energy rises.

 Cycle   1  Pass 1  IDiag  1:
 E= -135.481733706346    
 DIIS: error= 2.28D-02 at cycle   1 NSaved=   1.
 NSaved= 1 IEnMin= 1 EnMin= -135.481733706346     IErMin= 1 ErrMin= 2.28D-02
 ErrMax= 2.28D-02  0.00D+00 EMaxC= 1.00D-01 BMatC= 6.59D-02 BMatP= 6.59D-02
 IDIUse=3 WtCom= 7.72D-01 WtEn= 2.28D-01
 Coeff-Com:  0.100D+01
 Coeff-En:   0.100D+01
 Coeff:      0.100D+01
 Gap=     0.390 Goal=   None    Shift=    0.000
 GapD=    0.390 DampG=1.000 DampE=0.500 DampFc=0.5000 IDamp=-1.
 Damping current iteration by 5.00D-01
 RMSDP=4.61D-03 MaxDP=8.43D-02              OVMax= 1.13D-01

 Cycle   2  Pass 1  IDiag  1:
 E= -135.514676157299     Delta-E=       -0.032942450953 Rises=F Damp=T
 DIIS: error= 8.89D-03 at cycle   2 NSaved=   2.
 NSaved= 2 IEnMin= 2 EnMin= -135.514676157299     IErMin= 2 ErrMin= 8.89D-03
 ErrMax= 8.89D-03  0.00D+00 EMaxC= 1.00D-01 BMatC= 4.35D-03 BMatP= 6.59D-02
 IDIUse=3 WtCom= 9.11D-01 WtEn= 8.89D-02
 Coeff-Com: -0.156D-01 0.102D+01
 Coeff-En:   0.000D+00 0.100D+01
 Coeff:     -0.142D-01 0.101D+01
 Gap=     0.403 Goal=   None    Shift=    0.000
 RMSDP=1.27D-03 MaxDP=1.98D-02 DE=-3.29D-02 OVMax= 6.19D-02

 Cycle   3  Pass 1  IDiag  1:
 E= -135.548178221227     Delta-E=       -0.033502063928 Rises=F Damp=F
 DIIS: error= 3.37D-03 at cycle   3 NSaved=   3.
 NSaved= 3 IEnMin= 3 EnMin= -135.548178221227     IErMin= 3 ErrMin= 3.37D-03
 ErrMax= 3.37D-03  0.00D+00 EMaxC= 1.00D-01 BMatC= 9.55D-04 BMatP= 4.35D-03
 IDIUse=3 WtCom= 9.66D-01 WtEn= 3.37D-02
 Coeff-Com: -0.488D-01 0.309D+00 0.740D+00
 Coeff-En:   0.000D+00 0.000D+00 0.100D+01
 Coeff:     -0.471D-01 0.298D+00 0.749D+00
 Gap=     0.404 Goal=   None    Shift=    0.000
 RMSDP=2.83D-04 MaxDP=9.16D-03 DE=-3.35D-02 OVMax= 7.18D-03

 Cycle   4  Pass 1  IDiag  1:
 E= -135.548815168185     Delta-E=       -0.000636946958 Rises=F Damp=F
 DIIS: error= 1.59D-03 at cycle   4 NSaved=   4.
 NSaved= 4 IEnMin= 4 EnMin= -135.548815168185     IErMin= 4 ErrMin= 1.59D-03
 ErrMax= 1.59D-03  0.00D+00 EMaxC= 1.00D-01 BMatC= 1.72D-04 BMatP= 9.55D-04
 IDIUse=3 WtCom= 9.84D-01 WtEn= 1.59D-02
 Coeff-Com: -0.189D-01 0.773D-01 0.349D+00 0.592D+00
 Coeff-En:   0.000D+00 0.000D+00 0.405D-01 0.960D+00
 Coeff:     -0.186D-01 0.761D-01 0.344D+00 0.598D+00
 Gap=     0.404 Goal=   None    Shift=    0.000
 RMSDP=1.13D-04 MaxDP=3.58D-03 DE=-6.37D-04 OVMax= 3.54D-03

 Cycle   5  Pass 1  IDiag  1:
 E= -135.548933491039     Delta-E=       -0.000118322854 Rises=F Damp=F
 DIIS: error= 4.00D-04 at cycle   5 NSaved=   5.
 NSaved= 5 IEnMin= 5 EnMin= -135.548933491039     IErMin= 5 ErrMin= 4.00D-04
 ErrMax= 4.00D-04  0.00D+00 EMaxC= 1.00D-01 BMatC= 1.87D-05 BMatP= 1.72D-04
 IDIUse=3 WtCom= 9.96D-01 WtEn= 4.00D-03
 Coeff-Com: -0.350D-02 0.514D-02 0.869D-01 0.306D+00 0.606D+00
 Coeff-En:   0.000D+00 0.000D+00 0.000D+00 0.622D-01 0.938D+00
 Coeff:     -0.349D-02 0.512D-02 0.865D-01 0.305D+00 0.607D+00
 Gap=     0.404 Goal=   None    Shift=    0.000
 RMSDP=4.11D-05 MaxDP=7.23D-04 DE=-1.18D-04 OVMax= 9.93D-04

 Cycle   6  Pass 1  IDiag  1:
 E= -135.548950145625     Delta-E=       -0.000016654586 Rises=F Damp=F
 DIIS: error= 1.38D-05 at cycle   6 NSaved=   6.
 NSaved= 6 IEnMin= 6 EnMin= -135.548950145625     IErMin= 6 ErrMin= 1.38D-05
 ErrMax= 1.38D-05  0.00D+00 EMaxC= 1.00D-01 BMatC= 1.14D-08 BMatP= 1.87D-05
 IDIUse=1 WtCom= 1.00D+00 WtEn= 0.00D+00
 Coeff-Com: -0.270D-03-0.728D-04 0.829D-02 0.336D-01 0.745D-01 0.884D+00
 Coeff:     -0.270D-03-0.728D-04 0.829D-02 0.336D-01 0.745D-01 0.884D+00
 Gap=     0.404 Goal=   None    Shift=    0.000
 RMSDP=1.99D-06 MaxDP=2.70D-05 DE=-1.67D-05 OVMax= 4.08D-05

 Cycle   7  Pass 1  IDiag  1:
 E= -135.548950157142     Delta-E=       -0.000000011517 Rises=F Damp=F
 DIIS: error= 4.63D-06 at cycle   7 NSaved=   7.
 NSaved= 7 IEnMin= 7 EnMin= -135.548950157142     IErMin= 7 ErrMin= 4.63D-06
 ErrMax= 4.63D-06  0.00D+00 EMaxC= 1.00D-01 BMatC= 1.32D-09 BMatP= 1.14D-08
 IDIUse=1 WtCom= 1.00D+00 WtEn= 0.00D+00
 Coeff-Com:  0.428D-04-0.183D-03-0.288D-03-0.497D-03 0.166D-02 0.250D+00
 Coeff-Com:  0.749D+00
 Coeff:      0.428D-04-0.183D-03-0.288D-03-0.497D-03 0.166D-02 0.250D+00
 Coeff:      0.749D+00
 Gap=     0.404 Goal=   None    Shift=    0.000
 RMSDP=6.53D-07 MaxDP=8.32D-06 DE=-1.15D-08 OVMax= 1.15D-05

 Cycle   8  Pass 1  IDiag  1:
 E= -135.548950158647     Delta-E=       -0.000000001505 Rises=F Damp=F
 DIIS: error= 3.31D-07 at cycle   8 NSaved=   8.
 NSaved= 8 IEnMin= 8 EnMin= -135.548950158647     IErMin= 8 ErrMin= 3.31D-07
 ErrMax= 3.31D-07  0.00D+00 EMaxC= 1.00D-01 BMatC= 9.84D-12 BMatP= 1.32D-09
 IDIUse=1 WtCom= 1.00D+00 WtEn= 0.00D+00
 Coeff-Com:  0.171D-04-0.276D-04-0.267D-03-0.104D-02-0.184D-02 0.643D-03
 Coeff-Com:  0.646D-01 0.938D+00
 Coeff:      0.171D-04-0.276D-04-0.267D-03-0.104D-02-0.184D-02 0.643D-03
 Coeff:      0.646D-01 0.938D+00
 Gap=     0.404 Goal=   None    Shift=    0.000
 RMSDP=3.77D-08 MaxDP=5.98D-07 DE=-1.50D-09 OVMax= 8.84D-07

 Cycle   9  Pass 1  IDiag  1:
 E= -135.548950158658     Delta-E=       -0.000000000011 Rises=F Damp=F
 DIIS: error= 2.93D-08 at cycle   9 NSaved=   9.
 NSaved= 9 IEnMin= 9 EnMin= -135.548950158658     IErMin= 9 ErrMin= 2.93D-08
 ErrMax= 2.93D-08  0.00D+00 EMaxC= 1.00D-01 BMatC= 4.43D-14 BMatP= 9.84D-12
 IDIUse=1 WtCom= 1.00D+00 WtEn= 0.00D+00
 Coeff-Com:  0.477D-06-0.174D-06-0.130D-04-0.504D-04-0.805D-04-0.151D-02
 Coeff-Com: -0.110D-02 0.482D-01 0.955D+00
 Coeff:      0.477D-06-0.174D-06-0.130D-04-0.504D-04-0.805D-04-0.151D-02
 Coeff:     -0.110D-02 0.482D-01 0.955D+00
 Gap=     0.404 Goal=   None    Shift=    0.000
 RMSDP=3.14D-09 MaxDP=6.44D-08 DE=-1.10D-11 OVMax= 7.62D-08

 SCF Done:  E(RB3LYP) =  -135.548950159     A.U. after    9 cycles
            NFock=  9  Conv=0.31D-08     -V/T= 2.0103
 KE= 1.341689242809D+02 PE=-4.880631230997D+02 EE= 1.277099579642D+02
 Leave Link  502 at Sat Apr 25 17:05:30 2026, MaxMem=  7516192768 cpu:              29.6 elap:               0.8
 (Enter /opt/system/app/gaussian16/c02/l601.exe)
 Copying SCF densities to generalized density rwf, IOpCl= 0 IROHF=0.

 **********************************************************************

            Population analysis using the SCF Density.

 **********************************************************************

 Orbital symmetries:
       Occupied  (A) (A) (A) (A) (A) (A) (A) (A) (A) (A) (A) (A)
                 (A)
       Virtual   (A) (A) (A) (A) (A) (A) (A) (A) (A) (A) (A) (A)
                 (A) (A) (A) (A) (A) (A) (A) (A) (A) (A) (A) (A)
                 (A) (A) (A) (A) (A) (A) (A) (A) (A) (A) (A) (A)
                 (A) (A) (A) (A) (A) (A) (A) (A) (A) (A) (A) (A)
                 (A) (A) (A) (A) (A) (A) (A) (A) (A) (A) (A) (A)
                 (A) (A) (A) (A) (A) (A) (A) (A) (A) (A) (A) (A)
                 (A) (A) (A) (A) (A) (A) (A) (A) (A) (A) (A) (A)
                 (A) (A) (A) (A) (A) (A) (A) (A)
 The electronic state is 1-A.
 Alpha  occ. eigenvalues --  -14.67111 -10.43782 -10.43779  -1.21308  -0.94596
 Alpha  occ. eigenvalues --   -0.90105  -0.80060  -0.73277  -0.68951  -0.62295
 Alpha  occ. eigenvalues --   -0.61674  -0.60891  -0.60465
 Alpha virt. eigenvalues --   -0.20109  -0.14929  -0.14251  -0.13367  -0.11929
 Alpha virt. eigenvalues --   -0.09860  -0.09119  -0.08986  -0.06887  -0.06431
 Alpha virt. eigenvalues --   -0.04917  -0.04444  -0.03481  -0.02998  -0.01380
 Alpha virt. eigenvalues --   -0.01006   0.00217   0.01281   0.01395   0.03649
 Alpha virt. eigenvalues --    0.04009   0.04294   0.04405   0.05080   0.05109
 Alpha virt. eigenvalues --    0.05882   0.08886   0.14670   0.16033   0.24431
 Alpha virt. eigenvalues --    0.44816   0.49859   0.50154   0.52153   0.52500
 Alpha virt. eigenvalues --    0.59986   0.60187   0.63510   0.70176   0.70382
 Alpha virt. eigenvalues --    0.73571   0.76815   0.80203   0.82834   0.83395
 Alpha virt. eigenvalues --    0.89313   0.90492   0.98859   1.02942   1.05677
 Alpha virt. eigenvalues --    1.16017   1.31891   1.43474   1.46058   1.48179
 Alpha virt. eigenvalues --    1.66050   1.67326   1.76317   1.81414   1.81505
 Alpha virt. eigenvalues --    1.86390   1.87766   1.88721   1.90332   2.03475
 Alpha virt. eigenvalues --    2.04246   2.08202   2.15004   2.15603   2.24441
 Alpha virt. eigenvalues --    2.28332   2.35421   2.45317   2.45623   2.47184
 Alpha virt. eigenvalues --    2.50406   2.63032   2.64326   2.69403   2.71031
 Alpha virt. eigenvalues --    2.72498   3.04094   3.05424   3.08388   3.08487
 Alpha virt. eigenvalues --    3.20652   3.25622   3.27775   3.35462   3.95847
 Alpha virt. eigenvalues --    4.27962   4.31475
          Condensed to atoms (all electrons):
               1          2          3          4          5          6
     1  N    6.776842   0.138078   0.138014  -0.026918  -0.031231  -0.031231
     2  C    0.138078   5.137518  -0.080784   0.385314   0.403621   0.403621
     3  C    0.138014  -0.080784   5.137599   0.013470  -0.010606  -0.010606
     4  H   -0.026918   0.385314   0.013470   0.465451  -0.022220  -0.022220
     5  H   -0.031231   0.403621  -0.010606  -0.022220   0.465458  -0.027909
     6  H   -0.031231   0.403621  -0.010606  -0.022220  -0.027909   0.465458
     7  H   -0.026906   0.013468   0.385327  -0.002387   0.000736   0.000736
     8  H   -0.031261  -0.010614   0.403636   0.000736  -0.006953   0.012490
     9  H   -0.031261  -0.010614   0.403636   0.000736   0.012490  -0.006953
    10  H    0.307450  -0.028612  -0.028641  -0.004329  -0.010407   0.009336
    11  H    0.307450  -0.028612  -0.028641  -0.004329   0.009336  -0.010407
               7          8          9         10         11
     1  N   -0.026906  -0.031261  -0.031261   0.307450   0.307450
     2  C    0.013468  -0.010614  -0.010614  -0.028612  -0.028612
     3  C    0.385327   0.403636   0.403636  -0.028641  -0.028641
     4  H   -0.002387   0.000736   0.000736  -0.004329  -0.004329
     5  H    0.000736  -0.006953   0.012490  -0.010407   0.009336
     6  H    0.000736   0.012490  -0.006953   0.009336  -0.010407
     7  H    0.465464  -0.022222  -0.022222  -0.004335  -0.004335
     8  H   -0.022222   0.465488  -0.027902   0.009341  -0.010410
     9  H   -0.022222  -0.027902   0.465488  -0.010410   0.009341
    10  H   -0.004335   0.009341  -0.010410   0.375973  -0.030234
    11  H   -0.004335  -0.010410   0.009341  -0.030234   0.375972
 Mulliken charges:
               1
     1  N   -0.489025
     2  C   -0.322383
     3  C   -0.322405
     4  H    0.216695
     5  H    0.217684
     6  H    0.217684
     7  H    0.216676
     8  H    0.217670
     9  H    0.217670
    10  H    0.414867
    11  H    0.414867
 Sum of Mulliken charges =   1.00000
 Mulliken charges with hydrogens summed into heavy atoms:
               1
     1  N    0.340710
     2  C    0.329680
     3  C    0.329611
 Electronic spatial extent (au):  <R**2>=            206.3016
 Charge=              1.0000 electrons
 Dipole moment (field-independent basis, Debye):
    X=             -0.0001    Y=              1.5221    Z=             -0.0003  Tot=              1.5221
 Quadrupole moment (field-independent basis, Debye-Ang):
   XX=            -12.8751   YY=            -14.7593   ZZ=            -16.2743
   XY=              0.0016   XZ=              0.0000   YZ=             -0.0003
 Traceless Quadrupole moment (field-independent basis, Debye-Ang):
   XX=              1.7611   YY=             -0.1230   ZZ=             -1.6381
   XY=              0.0016   XZ=              0.0000   YZ=             -0.0003
 Octapole moment (field-independent basis, Debye-Ang**2):
  XXX=             -0.0020  YYY=              5.7923  ZZZ=             -0.0006  XYY=              0.0004
  XXY=              0.1217  XXZ=             -0.0000  XZZ=             -0.0002  YZZ=              1.1943
  YYZ=             -0.0006  XYZ=             -0.0000
 Hexadecapole moment (field-independent basis, Debye-Ang**3):
 XXXX=           -149.3528 YYYY=            -47.5092 ZZZZ=            -30.9354 XXXY=              0.0033
 XXXZ=             -0.0003 YYYX=              0.0027 YYYZ=              0.0039 ZZZX=             -0.0004
 ZZZY=             -0.0009 XXYY=            -34.0415 XXZZ=            -33.9216 YYZZ=             -8.7422
 XXYZ=             -0.0000 YYXZ=             -0.0001 ZZXY=              0.0025
 N-N= 9.063529069603D+01 E-N=-4.880631224536D+02  KE= 1.341689242809D+02
 GSVD:  LWork=        -713 too small for GESVD, short by        2990 words or        2990 for optimal perf.
          MBS Condensed to atoms (all electrons):
               1          2          3          4          5          6
     1  N    6.165740   0.288392   0.288420  -0.018056  -0.019467  -0.019467
     2  C    0.288392   4.812997  -0.023011   0.380336   0.380877   0.380876
     3  C    0.288420  -0.023011   4.812970   0.001351  -0.001761  -0.001761
     4  H   -0.018056   0.380336   0.001351   0.518169  -0.019134  -0.019134
     5  H   -0.019467   0.380877  -0.001761  -0.019134   0.519406  -0.019477
     6  H   -0.019467   0.380876  -0.001761  -0.019134  -0.019477   0.519406
     7  H   -0.018058   0.001351   0.380343  -0.000056   0.000010   0.000010
     8  H   -0.019483  -0.001763   0.380878   0.000010  -0.000097   0.001100
     9  H   -0.019482  -0.001763   0.380879   0.000010   0.001100  -0.000097
    10  H    0.326702  -0.022660  -0.022679  -0.001950  -0.002272   0.002189
    11  H    0.326702  -0.022660  -0.022679  -0.001950   0.002189  -0.002272
               7          8          9         10         11
     1  N   -0.018058  -0.019483  -0.019482   0.326702   0.326702
     2  C    0.001351  -0.001763  -0.001763  -0.022660  -0.022660
     3  C    0.380343   0.380878   0.380879  -0.022679  -0.022679
     4  H   -0.000056   0.000010   0.000010  -0.001950  -0.001950
     5  H    0.000010  -0.000097   0.001100  -0.002272   0.002189
     6  H    0.000010   0.001100  -0.000097   0.002189  -0.002272
     7  H    0.518173  -0.019131  -0.019131  -0.001952  -0.001952
     8  H   -0.019131   0.519452  -0.019477   0.002191  -0.002276
     9  H   -0.019131  -0.019477   0.519451  -0.002276   0.002191
    10  H   -0.001952   0.002191  -0.002276   0.412079  -0.025684
    11  H   -0.001952  -0.002276   0.002191  -0.025684   0.412078
 MBS Mulliken charges:
               1
     1  N   -0.281942
     2  C   -0.172972
     3  C   -0.172951
     4  H    0.160404
     5  H    0.158628
     6  H    0.158628
     7  H    0.160393
     8  H    0.158595
     9  H    0.158595
    10  H    0.336311
    11  H    0.336312
 Sum of MBS Mulliken charges =   1.00000
 MBS Mulliken charges with hydrogens summed into heavy atoms:
               1
     1  N    0.390680
     2  C    0.304688
     3  C    0.304632
 MBS Atomic Valencies and Mayer Atomic Bond Orders:
               1          2          3          4          5          6
     1  N    3.519893   0.887596   0.887675   0.004630   0.005380   0.005380
     2  C    0.887596   3.783827   0.011642   0.954411   0.955558   0.955558
     3  C    0.887675   0.011642   3.783897   0.007336   0.000741   0.000741
     4  H    0.004630   0.954411   0.007336   0.974271   0.002366   0.002366
     5  H    0.005380   0.955558   0.000741   0.002366   0.974837   0.002469
     6  H    0.005380   0.955558   0.000741   0.002366   0.002469   0.974837
     7  H    0.004629   0.007346   0.954405   0.002484   0.000001   0.000001
     8  H    0.005377   0.000742   0.955567   0.000001   0.000024   0.001336
     9  H    0.005377   0.000742   0.955567   0.000001   0.001336   0.000024
    10  H    0.856924   0.005115   0.005112   0.000338   0.000535   0.006426
    11  H    0.856924   0.005115   0.005112   0.000338   0.006426   0.000535
               7          8          9         10         11
     1  N    0.004629   0.005377   0.005377   0.856924   0.856924
     2  C    0.007346   0.000742   0.000742   0.005115   0.005115
     3  C    0.954405   0.955567   0.955567   0.005112   0.005112
     4  H    0.002484   0.000001   0.000001   0.000338   0.000338
     5  H    0.000001   0.000024   0.001336   0.000535   0.006426
     6  H    0.000001   0.001336   0.000024   0.006426   0.000535
     7  H    0.974274   0.002366   0.002366   0.000338   0.000338
     8  H    0.002366   0.974848   0.002468   0.006430   0.000536
     9  H    0.002366   0.002468   0.974848   0.000536   0.006430
    10  H    0.000338   0.006430   0.000536   0.886895   0.005140
    11  H    0.000338   0.000536   0.006430   0.005140   0.886895
 MBS Mayer-style numbers of lone pairs (13.000 valence pairs, 3.645 lone pairs):
               1
     1  N    1.881025
     2  C    1.194573
     3  C    1.194527
     4  H   -0.067337
     5  H   -0.066733
     6  H   -0.066733
     7  H   -0.067333
     8  H   -0.066721
     9  H   -0.066721
    10  H   -0.111603
    11  H   -0.111603
 BEBO parameters in MulMin, MxElBE=  0:
 ELP=  0.00000000000     EBEBO= 0.397615235464E-23 Sum= 0.397615235464E-23
 ELP=  0.00000000000     EBEBO= 0.397615235464E-23 EJK= 0.397615235464E-23  0.00000000000     Sum= 0.397615235464E-23
 0 EA= 0.198807617732E-23 EB= 0.198807617732E-23 ETot= 0.397615235464E-23
 1 EA= 0.198807617732E-23 EB= 0.198807617732E-23 ETot= 0.397615235464E-23
 2 EA= 0.198807617732E-23 EB= 0.198807617732E-23 ETot= 0.397615235464E-23
 3 EJ= 0.397615235464E-23 EK=  0.00000000000     ETot= 0.397615235464E-23
 4 EJ= 0.397615235464E-23 EK=  0.00000000000     ETot= 0.397615235464E-23
 5 EA= 0.198807617732E-23 EB= 0.198807617732E-23 ETot= 0.397615235464E-23
 No NMR shielding tensors so no spin-rotation constants.
 Leave Link  601 at Sat Apr 25 17:05:30 2026, MaxMem=  7516192768 cpu:               4.8 elap:               0.1
 (Enter /opt/system/app/gaussian16/c02/l602.exe)
 FitSet:  NAtFit=    11 NAtPot=    11 NAtFrz=     0 MDM=    15 TotChg=   1.00000
 Merz-Kollman atomic radii used.

 **********************************************************************

            Electrostatic Properties Using The SCF Density.

 **********************************************************************

       Atomic Center    1 is at   0.000109  0.540756 -0.000096
       Atomic Center    2 is at  -1.269393 -0.276132  0.000042
       Atomic Center    3 is at   1.269280 -0.276242  0.000056
       Atomic Center    4 is at  -2.123394  0.401777 -0.000088
       Atomic Center    5 is at  -1.277905 -0.898733 -0.894594
       Atomic Center    6 is at  -1.277918 -0.898406  0.894906
       Atomic Center    7 is at   2.123525  0.401387 -0.000065
       Atomic Center    8 is at   1.277510 -0.898554  0.894912
       Atomic Center    9 is at   1.277516 -0.898881 -0.894571
       Atomic Center   10 is at   0.000295  1.160030 -0.817671
       Atomic Center   11 is at   0.000286  1.160326  0.817254
     572 points will be used for fitting atomic charges
 Fitting point charges to electrostatic potential
 Charges from ESP fit, RMS=   0.00140 RRMS=   0.00894:
 ESP charges:
               1
     1  N   -0.099757
     2  C   -0.272189
     3  C   -0.264406
     4  H    0.160230
     5  H    0.175755
     6  H    0.175755
     7  H    0.158665
     8  H    0.173070
     9  H    0.173070
    10  H    0.309904
    11  H    0.309902
 Sum of ESP charges =   1.00000
 ESP charges with hydrogens summed into heavy atoms:
               1
     1  N    0.520049
     2  C    0.239551
     3  C    0.240400
 Charge=   1.00000 Dipole=    -0.0011     1.5104    -0.0003 Tot=     1.5104
 -----------------------------------------------------------------

              Electrostatic Properties (Atomic Units)

 -----------------------------------------------------------------
    Center     Electric         -------- Electric Field --------
               Potential          X             Y             Z
 -----------------------------------------------------------------
    1 Atom    -18.008650
    2 Atom    -14.487965
    3 Atom    -14.487988
    4 Atom     -0.892184
    5 Atom     -0.892751
    6 Atom     -0.892751
    7 Atom     -0.892181
    8 Atom     -0.892772
    9 Atom     -0.892772
   10 Atom     -0.760425
   11 Atom     -0.760425
 -----------------------------------------------------------------
 Leave Link  602 at Sat Apr 25 17:05:31 2026, MaxMem=  7516192768 cpu:               1.0 elap:               0.1
 (Enter /opt/system/app/gaussian16/c02/l608.exe)
 IExCor=  402 DFT=T Ex+Corr=B3LYP ExCW=0 ScaHFX=  0.200000
 ScaDFX=  0.800000  0.720000  1.000000  0.810000 ScalE2=  1.000000  1.000000
 IRadAn=      4 IRanWt=     -1 IRanGd=            0 ICorTp=0 IEmpDi=  4
 A total of   1 models will be applied.

 Results using SCF Density:
 FoFJK:  IHMeth= 0 ICntrl=     500 DoSepK=F KAlg= 0 I1Cent=           0 FoldK=F
 IRaf=         0 NMat=       1 IRICut=       1 DoRegI=T DoRafI=F ISym2E= 0 IDoP0=0 IntGTp=1.
 FoFCou: FMM=F IPFlag=           0 FMFlag=           0 FMFlg1=           0
         NFxFlg=           0 DoJE=F BraDBF=F KetDBF=F FulRan=T
         wScrn=  0.000000 ICntrl=       500 IOpCl=  1 I1Cent=           0 NGrid=           0
         NMat0=    1 NMatS0=      1 NMatT0=    0 NMatD0=    1 NMtDS0=    0 NMtDT0=    0
 Symmetry not used in FoFCou.
 ET=  134.168924 EV= -488.063122 EJ=  148.183040 EK=  -19.537641 ENuc=   90.635291

 A=0 I=   1 IExCor=  402 IRadAn=       4 ScaHFX=  0.200000
            ScaDFX=  0.800000  0.720000  1.000000  0.810000
 HFx=  0.000000  0.000000  1.000000  0.000000  0.000000
 DFx=  0.000000  0.000000  1.000000  0.000000  0.000000
 DFc=  0.000000  0.000000  1.000000  0.000000  0.000000
            ENTVJ= -115.075867 Ex=  -19.395441 Ec=   -1.077648 ETotM2e= -279.8244684956  ETot= -135.5489563455
 Leave Link  608 at Sat Apr 25 17:05:31 2026, MaxMem=  7516192768 cpu:               5.7 elap:               0.2
 (Enter /opt/system/app/gaussian16/c02/l701.exe)
 ... and contract with generalized density number  0.
 Compute integral first derivatives.
 Leave Link  701 at Sat Apr 25 17:05:31 2026, MaxMem=  7516192768 cpu:               4.8 elap:               0.2
 (Enter /opt/system/app/gaussian16/c02/l702.exe)
 L702 exits ... SP integral derivatives will be done elsewhere.
 Leave Link  702 at Sat Apr 25 17:05:31 2026, MaxMem=  7516192768 cpu:               0.2 elap:               0.0
 (Enter /opt/system/app/gaussian16/c02/l703.exe)
 Integral derivatives from FoFJK, PRISM(SPDF).
 Compute integral first derivatives, UseDBF=F ICtDFT=           0.
 Calling FoFJK, ICntrl=      2127 FMM=F ISym2X=0 I1Cent= 0 IOpClX= 0 NMat=1 NMatS=1 NMatT=0.
 FoFJK:  IHMeth= 1 ICntrl=    2127 DoSepK=F KAlg= 0 I1Cent=           0 FoldK=F
 IRaf=         0 NMat=       1 IRICut=       1 DoRegI=T DoRafI=F ISym2E= 0 IDoP0=0 IntGTp=1.
 FoFCou: FMM=F IPFlag=           0 FMFlag=      100000 FMFlg1=         800
         NFxFlg=           0 DoJE=F BraDBF=F KetDBF=F FulRan=T
         wScrn=  0.000000 ICntrl=      2127 IOpCl=  0 I1Cent=           0 NGrid=           0
         NMat0=    1 NMatS0=      1 NMatT0=    0 NMatD0=    1 NMtDS0=    0 NMtDT0=    0
 Symmetry not used in FoFCou.
 Leave Link  703 at Sat Apr 25 17:05:32 2026, MaxMem=  7516192768 cpu:              15.7 elap:               0.3
 (Enter /opt/system/app/gaussian16/c02/l716.exe)
 Dipole        =-2.58518922D-05 5.98827244D-01-1.08294984D-04
 ***** Axes restored to original set *****
 -------------------------------------------------------------------
 Center     Atomic                   Forces (Hartrees/Bohr)
 Number     Number              X              Y              Z
 -------------------------------------------------------------------
      1        7           0.000040486    0.000129443    0.000001290
      2        6          -0.000153771    0.000048664   -0.000000736
      3        6           0.000108672   -0.000046608   -0.000001064
      4        1          -0.000003018    0.000021488   -0.000000004
      5        1           0.000009382   -0.000022739    0.000017411
      6        1           0.000009598   -0.000022692   -0.000017074
      7        1           0.000013164    0.000014562   -0.000000013
      8        1          -0.000035476   -0.000023727   -0.000008864
      9        1          -0.000035293   -0.000024041    0.000009550
     10        1           0.000023126   -0.000037175   -0.000008908
     11        1           0.000023131   -0.000037175    0.000008412
 -------------------------------------------------------------------
 Cartesian Forces:  Max     0.000153771 RMS     0.000045678
 Leave Link  716 at Sat Apr 25 17:05:32 2026, MaxMem=  7516192768 cpu:               0.2 elap:               0.0
 (Enter /opt/system/app/gaussian16/c02/l103.exe)

 GradGradGradGradGradGradGradGradGradGradGradGradGradGradGradGradGradGrad
 Berny optimization.
 FormGI is forming the generalized inverse of G from B-inverse, IUseBI=4.
 Internal  Forces:  Max     0.000129268 RMS     0.000031215
 Search for a local minimum.
 Step number   1 out of a maximum of   56
 All quantities printed in internal units (Hartrees-Bohrs-Radians)
 RMS Force = .31215D-04 SwitMx=.10000D-02 MixMth= 2
 Mixed Optimization -- En-DIIS/RFO-DIIS
 Second derivative matrix not updated -- first step.
 ITU=  0
     Eigenvalues ---    0.00242   0.00245   0.03242   0.04689   0.05874
     Eigenvalues ---    0.05875   0.05921   0.05924   0.08607   0.12414
     Eigenvalues ---    0.16000   0.16000   0.16000   0.16000   0.16000
     Eigenvalues ---    0.16000   0.21915   0.31389   0.31411   0.34770
     Eigenvalues ---    0.34771   0.34812   0.34812   0.34814   0.34814
     Eigenvalues ---    0.43451   0.43451
 RFO step:  Lambda=-2.41269064D-07 EMin= 2.41766982D-03
 Linear search not attempted -- first point.
 Iteration  1 RMS(Cart)=  0.00023920 RMS(Int)=  0.00000005
 Iteration  2 RMS(Cart)=  0.00000005 RMS(Int)=  0.00000004
 ITry= 1 IFail=0 DXMaxC= 6.70D-04 DCOld= 1.00D+10 DXMaxT= 3.00D-01 DXLimC= 3.00D+00 Rises=F
 Variable       Old X    -DE/DX   Delta X   Delta X   Delta X     New X
                                 (Linear)    (Quad)   (Total)
    R1        2.85276  -0.00013   0.00000  -0.00041  -0.00041   2.85235
    R2        2.85235   0.00000   0.00000   0.00000   0.00000   2.85235
    R3        1.93817  -0.00003   0.00000  -0.00007  -0.00007   1.93810
    R4        1.93817  -0.00003   0.00000  -0.00007  -0.00007   1.93810
    R5        2.06048   0.00001   0.00000   0.00003   0.00003   2.06051
    R6        2.05978   0.00003   0.00000   0.00008   0.00008   2.05986
    R7        2.05978   0.00003   0.00000   0.00008   0.00008   2.05986
    R8        2.06051  -0.00000   0.00000  -0.00000  -0.00000   2.06050
    R9        2.05981   0.00002   0.00000   0.00006   0.00006   2.05987
   R10        2.05981   0.00002   0.00000   0.00006   0.00006   2.05987
    A1        1.99787  -0.00008   0.00000  -0.00045  -0.00045   1.99742
    A2        1.90387   0.00001   0.00000  -0.00011  -0.00011   1.90377
    A3        1.90388   0.00001   0.00000  -0.00011  -0.00011   1.90377
    A4        1.90366   0.00003   0.00000   0.00020   0.00020   1.90386
    A5        1.90366   0.00003   0.00000   0.00020   0.00020   1.90386
    A6        1.84472   0.00000   0.00000   0.00032   0.00032   1.84504
    A7        1.89887  -0.00003   0.00000  -0.00024  -0.00024   1.89863
    A8        1.89187   0.00002   0.00000   0.00014   0.00014   1.89200
    A9        1.89186   0.00002   0.00000   0.00014   0.00014   1.89200
   A10        1.92721   0.00000   0.00000   0.00000   0.00000   1.92722
   A11        1.92721   0.00000   0.00000   0.00001   0.00001   1.92722
   A12        1.92590  -0.00001   0.00000  -0.00005  -0.00005   1.92585
   A13        1.89903  -0.00005   0.00000  -0.00038  -0.00038   1.89865
   A14        1.89174   0.00006   0.00000   0.00038   0.00038   1.89212
   A15        1.89174   0.00006   0.00000   0.00038   0.00038   1.89212
   A16        1.92729  -0.00001   0.00000  -0.00014  -0.00014   1.92715
   A17        1.92729  -0.00001   0.00000  -0.00014  -0.00014   1.92715
   A18        1.92584  -0.00004   0.00000  -0.00009  -0.00009   1.92575
    D1       -3.14159  -0.00000   0.00000  -0.00001  -0.00001   3.14159
    D2       -1.04532  -0.00000   0.00000  -0.00006  -0.00006  -1.04537
    D3        1.04533   0.00000   0.00000   0.00004   0.00004   1.04537
    D4       -1.00355  -0.00000   0.00000  -0.00013  -0.00013  -1.00368
    D5        1.09273  -0.00001   0.00000  -0.00018  -0.00018   1.09254
    D6       -3.09982  -0.00000   0.00000  -0.00008  -0.00008  -3.09990
    D7        1.00355   0.00000   0.00000   0.00013   0.00013   1.00368
    D8        3.09982   0.00000   0.00000   0.00008   0.00008   3.09990
    D9       -1.09272   0.00001   0.00000   0.00018   0.00018  -1.09254
   D10        3.14159   0.00000   0.00000   0.00001   0.00001  -3.14159
   D11       -1.04522  -0.00001   0.00000  -0.00016  -0.00016  -1.04538
   D12        1.04521   0.00001   0.00000   0.00017   0.00017   1.04538
   D13        1.00343   0.00002   0.00000   0.00030   0.00030   1.00373
   D14        3.09981   0.00001   0.00000   0.00014   0.00014   3.09994
   D15       -1.09295   0.00003   0.00000   0.00047   0.00047  -1.09249
   D16       -1.00343  -0.00002   0.00000  -0.00030  -0.00030  -1.00373
   D17        1.09295  -0.00003   0.00000  -0.00046  -0.00046   1.09249
   D18       -3.09981  -0.00001   0.00000  -0.00013  -0.00013  -3.09994
         Item               Value     Threshold  Converged?
 Maximum Force            0.000129     0.000015     NO 
 RMS     Force            0.000031     0.000010     NO 
 Maximum Displacement     0.000670     0.000060     NO 
 RMS     Displacement     0.000239     0.000040     NO 
 Predicted change in Energy=-1.206479D-07
 Lowest energy point so far.  Saving SCF results.
 GradGradGradGradGradGradGradGradGradGradGradGradGradGradGradGradGradGrad

 Leave Link  103 at Sat Apr 25 17:05:32 2026, MaxMem=  7516192768 cpu:               0.5 elap:               0.1
 (Enter /opt/system/app/gaussian16/c02/l202.exe)
                          Input orientation:                          
 ---------------------------------------------------------------------
 Center     Atomic      Atomic             Coordinates (Angstroms)
 Number     Number       Type             X           Y           Z
 ---------------------------------------------------------------------
      1          7           0       -0.000051    0.540950    0.000099
      2          6           0        1.269111   -0.276065   -0.000043
      3          6           0       -1.269015   -0.276369   -0.000057
      4          1           0        2.123096    0.401892    0.000084
      5          1           0        1.277663   -0.898709    0.894613
      6          1           0        1.277671   -0.898385   -0.894925
      7          1           0       -2.123170    0.401369    0.000060
      8          1           0       -1.277530   -0.898737   -0.894911
      9          1           0       -1.277541   -0.899061    0.894571
     10          1           0       -0.000076    1.160071    0.817745
     11          1           0       -0.000067    1.160369   -0.817321
 ---------------------------------------------------------------------
                    Distance matrix (angstroms):
                    1          2          3          4          5
     1  N    0.000000
     2  C    1.509398   0.000000
     3  C    1.509398   2.538126   0.000000
     4  H    2.127695   1.090374   3.459256   0.000000
     5  H    2.122575   1.090031   2.770074   1.790671   0.000000
     6  H    2.122575   1.090032   2.770073   1.790671   1.789538
     7  H    2.127703   3.459261   1.090372   4.246266   3.749146
     8  H    2.122662   2.770179   1.090035   3.749254   3.119520
     9  H    2.122662   2.770180   1.090035   3.749255   2.555204
    10  H    1.025600   2.083770   2.083835   2.398179   2.424273
    11  H    1.025600   2.083770   2.083834   2.398178   2.967004
                    6          7          8          9         10
     6  H    0.000000
     7  H    3.749144   0.000000
     8  H    2.555202   1.790630   0.000000
     9  H    3.119520   1.790630   1.789482   0.000000
    10  H    2.967005   2.398284   2.967115   2.424426   0.000000
    11  H    2.424274   2.398283   2.424427   2.967114   1.635066
                   11
    11  H    0.000000
 Stoichiometry    C2H8N(1+)
 Framework group  C1[X(C2H8N)]
 Deg. of freedom    27
 Full point group                 C1      NOp   1
 RotChk:  IX=0 Diff= 1.95D-04
 Largest Abelian subgroup         C1      NOp   1
 Largest concise Abelian subgroup C1      NOp   1
                         Standard orientation:                         
 ---------------------------------------------------------------------
 Center     Atomic      Atomic             Coordinates (Angstroms)
 Number     Number       Type             X           Y           Z
 ---------------------------------------------------------------------
      1          7           0       -0.000014    0.540918   -0.000099
      2          6           0       -1.269063   -0.276272    0.000044
      3          6           0        1.269063   -0.276225    0.000057
      4          1           0       -2.123141    0.401567   -0.000083
      5          1           0       -1.277529   -0.898917   -0.894613
      6          1           0       -1.277537   -0.898593    0.894925
      7          1           0        2.123125    0.401631   -0.000060
      8          1           0        1.277664   -0.898592    0.894911
      9          1           0        1.277675   -0.898916   -0.894571
     10          1           0       -0.000074    1.160039   -0.817744
     11          1           0       -0.000083    1.160337    0.817322
 ---------------------------------------------------------------------
 Rotational constants (GHZ):          30.0945101           8.5812835           7.5954506
 Leave Link  202 at Sat Apr 25 17:05:32 2026, MaxMem=  7516192768 cpu:               0.2 elap:               0.0
 (Enter /opt/system/app/gaussian16/c02/l301.exe)
 Standard basis: 6-31++G(d,p) (6D, 7F)
 Ernie: Thresh=  0.10000D-02 Tol=  0.10000D-05 Strict=F.
 There are   105 symmetry adapted cartesian basis functions of A   symmetry.
 There are   105 symmetry adapted basis functions of A   symmetry.
   105 basis functions,   160 primitive gaussians,   105 cartesian basis functions
    13 alpha electrons       13 beta electrons
       nuclear repulsion energy        90.6402463672 Hartrees.
 IExCor=  402 DFT=T Ex+Corr=B3LYP ExCW=0 ScaHFX=  0.200000
 ScaDFX=  0.800000  0.720000  1.000000  0.810000 ScalE2=  1.000000  1.000000
 IRadAn=      5 IRanWt=     -1 IRanGd=            0 ICorTp=0 IEmpDi=  4
 NAtoms=   11 NActive=   11 NUniq=   11 SFac= 1.00D+00 NAtFMM=   60 NAOKFM=F Big=F
 Integral buffers will be    131072 words long.
 Raffenetti 2 integral format.
 Two-electron integral symmetry is turned on.
 Leave Link  301 at Sat Apr 25 17:05:32 2026, MaxMem=  7516192768 cpu:               0.2 elap:               0.0
 (Enter /opt/system/app/gaussian16/c02/l302.exe)
 NPDir=0 NMtPBC=     1 NCelOv=     1 NCel=       1 NClECP=     1 NCelD=      1
         NCelK=      1 NCelE2=     1 NClLst=     1 CellRange=     0.0.
 One-electron integrals computed using PRISM.
 One-electron integral symmetry used in STVInt
 NBasis=   105 RedAO= T EigKep=  7.82D-04  NBF=   105
 NBsUse=   105 1.00D-06 EigRej= -1.00D+00 NBFU=   105
 Precomputing XC quadrature grid using
 IXCGrd= 4 IRadAn=           5 IRanWt=          -1 IRanGd=           0 AccXCQ= 0.00D+00.
 Generated NRdTot=       0 NPtTot=           0 NUsed=           0 NTot=          32
 NSgBfM=   105   105   105   105   105 MxSgAt=    11 MxSgA2=    11.
 Leave Link  302 at Sat Apr 25 17:05:32 2026, MaxMem=  7516192768 cpu:               4.5 elap:               0.1
 (Enter /opt/system/app/gaussian16/c02/l303.exe)
 DipDrv:  MaxL=1.
 Leave Link  303 at Sat Apr 25 17:05:32 2026, MaxMem=  7516192768 cpu:               0.3 elap:               0.0
 (Enter /opt/system/app/gaussian16/c02/l401.exe)
 Initial guess from the checkpoint file:  "main.chk"
 B after Tr=     0.000000    0.000000    0.000000
         Rot=    1.000000    0.000000   -0.000000   -0.000057 Ang=   0.01 deg.
 Guess basis will be translated and rotated to current coordinates.
 JPrj=2 DoOrth=T DoCkMO=T.
 Leave Link  401 at Sat Apr 25 17:05:32 2026, MaxMem=  7516192768 cpu:               0.7 elap:               0.1
 (Enter /opt/system/app/gaussian16/c02/l502.exe)
 Keep R1 ints in memory in canonical form, NReq=67616555.
 FoFCou: FMM=F IPFlag=           0 FMFlag=           0 FMFlg1=           0
         NFxFlg=           0 DoJE=F BraDBF=F KetDBF=F FulRan=T
         wScrn=  0.000000 ICntrl=       600 IOpCl=  0 I1Cent=           0 NGrid=           0
         NMat0=    1 NMatS0=   5565 NMatT0=    0 NMatD0=    1 NMtDS0=    0 NMtDT0=    0
 Symmetry not used in FoFCou.
 Two-electron integral symmetry not used.
 Closed shell SCF:
 Using DIIS extrapolation, IDIIS=  1040.
 NGot=  7516192768 LenX=  7500675901 LenY=  7500664435
 Requested convergence on RMS density matrix=1.00D-08 within 128 cycles.
 Requested convergence on MAX density matrix=1.00D-06.
 Requested convergence on             energy=1.00D-06.
 No special actions if energy rises.

 Cycle   1  Pass 1  IDiag  1:
 E= -135.548950218956    
 DIIS: error= 1.89D-05 at cycle   1 NSaved=   1.
 NSaved= 1 IEnMin= 1 EnMin= -135.548950218956     IErMin= 1 ErrMin= 1.89D-05
 ErrMax= 1.89D-05  0.00D+00 EMaxC= 1.00D-01 BMatC= 3.17D-08 BMatP= 3.17D-08
 IDIUse=1 WtCom= 1.00D+00 WtEn= 0.00D+00
 Coeff-Com:  0.100D+01
 Coeff:      0.100D+01
 Gap=     0.528 Goal=   None    Shift=    0.000
 RMSDP=2.76D-06 MaxDP=2.96D-05              OVMax= 6.99D-05

 Cycle   2  Pass 1  IDiag  1:
 E= -135.548950257290     Delta-E=       -0.000000038334 Rises=F Damp=F
 DIIS: error= 5.33D-06 at cycle   2 NSaved=   2.
 NSaved= 2 IEnMin= 2 EnMin= -135.548950257290     IErMin= 2 ErrMin= 5.33D-06
 ErrMax= 5.33D-06  0.00D+00 EMaxC= 1.00D-01 BMatC= 2.91D-09 BMatP= 3.17D-08
 IDIUse=1 WtCom= 1.00D+00 WtEn= 0.00D+00
 Coeff-Com:  0.118D+00 0.882D+00
 Coeff:      0.118D+00 0.882D+00
 Gap=     0.404 Goal=   None    Shift=    0.000
 RMSDP=7.27D-07 MaxDP=2.13D-05 DE=-3.83D-08 OVMax= 2.29D-05

 Cycle   3  Pass 1  IDiag  1:
 E= -135.548950257174     Delta-E=        0.000000000116 Rises=F Damp=F
 DIIS: error= 6.30D-06 at cycle   3 NSaved=   3.
 NSaved= 3 IEnMin= 2 EnMin= -135.548950257290     IErMin= 2 ErrMin= 5.33D-06
 ErrMax= 6.30D-06  0.00D+00 EMaxC= 1.00D-01 BMatC= 3.18D-09 BMatP= 2.91D-09
 IDIUse=1 WtCom= 1.00D+00 WtEn= 0.00D+00
 Coeff-Com: -0.127D-01 0.513D+00 0.499D+00
 Coeff:     -0.127D-01 0.513D+00 0.499D+00
 Gap=     0.403 Goal=   None    Shift=    0.000
 RMSDP=3.99D-07 MaxDP=1.30D-05 DE= 1.16D-10 OVMax= 1.33D-05

 Cycle   4  Pass 1  IDiag  1:
 E= -135.548950259696     Delta-E=       -0.000000002522 Rises=F Damp=F
 DIIS: error= 6.18D-07 at cycle   4 NSaved=   4.
 NSaved= 4 IEnMin= 4 EnMin= -135.548950259696     IErMin= 4 ErrMin= 6.18D-07
 ErrMax= 6.18D-07  0.00D+00 EMaxC= 1.00D-01 BMatC= 3.40D-11 BMatP= 2.91D-09
 IDIUse=1 WtCom= 1.00D+00 WtEn= 0.00D+00
 Coeff-Com: -0.936D-02 0.141D+00 0.179D+00 0.689D+00
 Coeff:     -0.936D-02 0.141D+00 0.179D+00 0.689D+00
 Gap=     0.403 Goal=   None    Shift=    0.000
 RMSDP=5.79D-08 MaxDP=1.18D-06 DE=-2.52D-09 OVMax= 1.64D-06

 Cycle   5  Pass 1  IDiag  1:
 E= -135.548950259723     Delta-E=       -0.000000000027 Rises=F Damp=F
 DIIS: error= 9.22D-08 at cycle   5 NSaved=   5.
 NSaved= 5 IEnMin= 5 EnMin= -135.548950259723     IErMin= 5 ErrMin= 9.22D-08
 ErrMax= 9.22D-08  0.00D+00 EMaxC= 1.00D-01 BMatC= 1.93D-12 BMatP= 3.40D-11
 IDIUse=1 WtCom= 1.00D+00 WtEn= 0.00D+00
 Coeff-Com: -0.364D-02 0.455D-01 0.621D-01 0.296D+00 0.600D+00
 Coeff:     -0.364D-02 0.455D-01 0.621D-01 0.296D+00 0.600D+00
 Gap=     0.403 Goal=   None    Shift=    0.000
 RMSDP=1.41D-08 MaxDP=3.63D-07 DE=-2.72D-11 OVMax= 3.75D-07

 Cycle   6  Pass 1  IDiag  1:
 E= -135.548950259725     Delta-E=       -0.000000000002 Rises=F Damp=F
 DIIS: error= 2.72D-08 at cycle   6 NSaved=   6.
 NSaved= 6 IEnMin= 6 EnMin= -135.548950259725     IErMin= 6 ErrMin= 2.72D-08
 ErrMax= 2.72D-08  0.00D+00 EMaxC= 1.00D-01 BMatC= 1.14D-13 BMatP= 1.93D-12
 IDIUse=1 WtCom= 1.00D+00 WtEn= 0.00D+00
 Coeff-Com: -0.183D-03-0.481D-03 0.396D-03 0.216D-01 0.211D+00 0.768D+00
 Coeff:     -0.183D-03-0.481D-03 0.396D-03 0.216D-01 0.211D+00 0.768D+00
 Gap=     0.403 Goal=   None    Shift=    0.000
 RMSDP=3.33D-09 MaxDP=6.82D-08 DE=-2.22D-12 OVMax= 9.55D-08

 SCF Done:  E(RB3LYP) =  -135.548950260     A.U. after    6 cycles
            NFock=  6  Conv=0.33D-08     -V/T= 2.0103
 KE= 1.341691568368D+02 PE=-4.880729542149D+02 EE= 1.277146007512D+02
 Leave Link  502 at Sat Apr 25 17:05:33 2026, MaxMem=  7516192768 cpu:              23.9 elap:               0.6
 (Enter /opt/system/app/gaussian16/c02/l701.exe)
 ... and contract with generalized density number  0.
 Compute integral first derivatives.
 Leave Link  701 at Sat Apr 25 17:05:33 2026, MaxMem=  7516192768 cpu:               4.1 elap:               0.1
 (Enter /opt/system/app/gaussian16/c02/l702.exe)
 L702 exits ... SP integral derivatives will be done elsewhere.
 Leave Link  702 at Sat Apr 25 17:05:33 2026, MaxMem=  7516192768 cpu:               0.3 elap:               0.0
 (Enter /opt/system/app/gaussian16/c02/l703.exe)
 Integral derivatives from FoFJK, PRISM(SPDF).
 Compute integral first derivatives, UseDBF=F ICtDFT=           0.
 Calling FoFJK, ICntrl=      2127 FMM=F ISym2X=0 I1Cent= 0 IOpClX= 0 NMat=1 NMatS=1 NMatT=0.
 FoFJK:  IHMeth= 1 ICntrl=    2127 DoSepK=F KAlg= 0 I1Cent=           0 FoldK=F
 IRaf=         0 NMat=       1 IRICut=       1 DoRegI=T DoRafI=F ISym2E= 0 IDoP0=0 IntGTp=1.
 FoFCou: FMM=F IPFlag=           0 FMFlag=      100000 FMFlg1=         800
         NFxFlg=           0 DoJE=F BraDBF=F KetDBF=F FulRan=T
         wScrn=  0.000000 ICntrl=      2127 IOpCl=  0 I1Cent=           0 NGrid=           0
         NMat0=    1 NMatS0=      1 NMatT0=    0 NMatD0=    1 NMtDS0=    0 NMtDT0=    0
 Symmetry not used in FoFCou.
 Leave Link  703 at Sat Apr 25 17:05:33 2026, MaxMem=  7516192768 cpu:              15.9 elap:               0.3
 (Enter /opt/system/app/gaussian16/c02/l716.exe)
 Dipole        =-2.99233207D-05 5.98799944D-01-1.08891131D-04
 ***** Axes restored to original set *****
 -------------------------------------------------------------------
 Center     Atomic                   Forces (Hartrees/Bohr)
 Number     Number              X              Y              Z
 -------------------------------------------------------------------
      1        7           0.000006331   -0.000022453   -0.000000243
      2        6          -0.000022174    0.000025631    0.000000109
      3        6           0.000002577    0.000025211    0.000000091
      4        1           0.000016476   -0.000012825    0.000000016
      5        1           0.000007889   -0.000003234   -0.000003399
      6        1           0.000007785   -0.000003161    0.000003414
      7        1          -0.000015415   -0.000007222    0.000000024
      8        1           0.000005928    0.000005317   -0.000000727
      9        1           0.000005829    0.000005259    0.000000744
     10        1          -0.000007609   -0.000006322   -0.000002227
     11        1          -0.000007617   -0.000006202    0.000002198
 -------------------------------------------------------------------
 Cartesian Forces:  Max     0.000025631 RMS     0.000010383
 Leave Link  716 at Sat Apr 25 17:05:34 2026, MaxMem=  7516192768 cpu:               0.2 elap:               0.0
 (Enter /opt/system/app/gaussian16/c02/l103.exe)

 GradGradGradGradGradGradGradGradGradGradGradGradGradGradGradGradGradGrad
 Berny optimization.
 Using GEDIIS/GDIIS optimizer.
 FormGI is forming the generalized inverse of G from B-inverse, IUseBI=4.
 GSVD:  received Info=                   1 from GESDD.
 Internal  Forces:  Max     0.000027298 RMS     0.000008599
 Search for a local minimum.
 Step number   2 out of a maximum of   56
 All quantities printed in internal units (Hartrees-Bohrs-Radians)
 RMS Force = .85988D-05 SwitMx=.10000D-02 MixMth= 2
 Mixed Optimization -- En-DIIS/RFO-DIIS
 Swapping is turned off.
 Update second derivatives using D2CorX and points    1    2
 DE= -1.01D-07 DEPred=-1.21D-07 R= 8.38D-01
 Trust test= 8.38D-01 RLast= 1.41D-03 DXMaxT set to 3.00D-01
 ITU=  0  0
     Eigenvalues ---    0.00242   0.00245   0.03245   0.04533   0.05874
     Eigenvalues ---    0.05876   0.05913   0.06039   0.08789   0.12411
     Eigenvalues ---    0.15123   0.16000   0.16000   0.16000   0.16000
     Eigenvalues ---    0.18575   0.23202   0.30519   0.32175   0.34646
     Eigenvalues ---    0.34772   0.34811   0.34812   0.34814   0.35093
     Eigenvalues ---    0.43191   0.43451
 En-DIIS/RFO-DIIS/Sim-DIIS IScMMF=       -3 using points:     2    1
 RFO step:  Lambda=-1.31873362D-08.
 NNeg= 0 NGDIIS= 2 SimSw=  2.50D-03 Rises=F DC= -1.01D-07 SmlDif=  1.00D-05
 NRisDI= 0 DoIntr=F SqrtH=F CThrHd= 10.0 CDAdj=  3.0
 RMS Error=  0.4550773213D-04 NUsed= 2 OKEnD=F EnDIS=F
 InvSVX:  RCond= 2.25D-06 Info=           0 Equed=N FErr=  1.01D-15 BErr=  3.20D-17
 DidBck=F Rises=F RFO-DIIS coefs:    0.91930    0.08070
 Iteration  1 RMS(Cart)=  0.00006360 RMS(Int)=  0.00000000
 Iteration  2 RMS(Cart)=  0.00000000 RMS(Int)=  0.00000000
 ITry= 1 IFail=0 DXMaxC= 1.94D-04 DCOld= 1.00D+10 DXMaxT= 3.00D-01 DXLimC= 3.00D+00 Rises=F
 Variable       Old X    -DE/DX   Delta X   Delta X   Delta X     New X
                                 (Linear)    (Quad)   (Total)
    R1        2.85235   0.00000   0.00003  -0.00004  -0.00001   2.85234
    R2        2.85235  -0.00001  -0.00000  -0.00004  -0.00004   2.85231
    R3        1.93810  -0.00001   0.00001  -0.00002  -0.00001   1.93809
    R4        1.93810  -0.00001   0.00001  -0.00002  -0.00001   1.93809
    R5        2.06051   0.00000  -0.00000   0.00002   0.00001   2.06052
    R6        2.05986  -0.00000  -0.00001   0.00001   0.00000   2.05986
    R7        2.05986  -0.00000  -0.00001   0.00001   0.00000   2.05986
    R8        2.06050   0.00001   0.00000   0.00002   0.00002   2.06052
    R9        2.05987  -0.00000  -0.00000   0.00000  -0.00000   2.05986
   R10        2.05987  -0.00000  -0.00001   0.00000  -0.00000   2.05987
    A1        1.99742   0.00001   0.00004  -0.00001   0.00002   1.99745
    A2        1.90377   0.00000   0.00001   0.00001   0.00002   1.90379
    A3        1.90377   0.00000   0.00001   0.00001   0.00002   1.90379
    A4        1.90386  -0.00001  -0.00002  -0.00004  -0.00005   1.90381
    A5        1.90386  -0.00001  -0.00002  -0.00004  -0.00005   1.90381
    A6        1.84504   0.00000  -0.00003   0.00006   0.00004   1.84508
    A7        1.89863   0.00003   0.00002   0.00013   0.00015   1.89878
    A8        1.89200   0.00001  -0.00001   0.00005   0.00004   1.89204
    A9        1.89200   0.00001  -0.00001   0.00005   0.00004   1.89204
   A10        1.92722  -0.00002  -0.00000  -0.00007  -0.00007   1.92715
   A11        1.92722  -0.00002  -0.00000  -0.00007  -0.00007   1.92715
   A12        1.92585  -0.00001   0.00000  -0.00008  -0.00008   1.92577
   A13        1.89865   0.00003   0.00003   0.00011   0.00014   1.89879
   A14        1.89212  -0.00001  -0.00003  -0.00003  -0.00006   1.89205
   A15        1.89212  -0.00001  -0.00003  -0.00003  -0.00006   1.89205
   A16        1.92715  -0.00000   0.00001  -0.00002  -0.00001   1.92714
   A17        1.92715  -0.00000   0.00001  -0.00003  -0.00001   1.92714
   A18        1.92575   0.00001   0.00001   0.00000   0.00001   1.92576
    D1        3.14159   0.00000   0.00000   0.00000   0.00000   3.14159
    D2       -1.04537   0.00000   0.00000   0.00002   0.00003  -1.04535
    D3        1.04537  -0.00000  -0.00000  -0.00002  -0.00002   1.04535
    D4       -1.00368  -0.00000   0.00001  -0.00004  -0.00003  -1.00371
    D5        1.09254  -0.00000   0.00001  -0.00002  -0.00001   1.09253
    D6       -3.09990  -0.00000   0.00001  -0.00006  -0.00006  -3.09996
    D7        1.00368   0.00000  -0.00001   0.00005   0.00003   1.00371
    D8        3.09990   0.00000  -0.00001   0.00006   0.00006   3.09996
    D9       -1.09254   0.00000  -0.00001   0.00003   0.00001  -1.09253
   D10       -3.14159  -0.00000  -0.00000  -0.00000  -0.00000  -3.14159
   D11       -1.04538   0.00000   0.00001   0.00002   0.00003  -1.04535
   D12        1.04538  -0.00000  -0.00001  -0.00002  -0.00003   1.04535
   D13        1.00373  -0.00000  -0.00002   0.00002  -0.00001   1.00372
   D14        3.09994   0.00000  -0.00001   0.00003   0.00002   3.09997
   D15       -1.09249  -0.00001  -0.00004   0.00000  -0.00004  -1.09252
   D16       -1.00373   0.00000   0.00002  -0.00002   0.00001  -1.00372
   D17        1.09249   0.00001   0.00004  -0.00000   0.00004   1.09252
   D18       -3.09994  -0.00000   0.00001  -0.00004  -0.00003  -3.09997
         Item               Value     Threshold  Converged?
 Maximum Force            0.000027     0.000015     NO 
 RMS     Force            0.000009     0.000010     YES
 Maximum Displacement     0.000194     0.000060     NO 
 RMS     Displacement     0.000064     0.000040     NO 
 Predicted change in Energy=-8.301306D-09
 Lowest energy point so far.  Saving SCF results.
 GradGradGradGradGradGradGradGradGradGradGradGradGradGradGradGradGradGrad

 Leave Link  103 at Sat Apr 25 17:05:34 2026, MaxMem=  7516192768 cpu:               0.5 elap:               0.0
 (Enter /opt/system/app/gaussian16/c02/l202.exe)
                          Input orientation:                          
 ---------------------------------------------------------------------
 Center     Atomic      Atomic             Coordinates (Angstroms)
 Number     Number       Type             X           Y           Z
 ---------------------------------------------------------------------
      1          7           0       -0.000063    0.540963    0.000099
      2          6           0        1.269101   -0.276042   -0.000043
      3          6           0       -1.269024   -0.276323   -0.000057
      4          1           0        2.123186    0.401800    0.000085
      5          1           0        1.277682   -0.898720    0.894590
      6          1           0        1.277691   -0.898395   -0.894902
      7          1           0       -2.123273    0.401313    0.000061
      8          1           0       -1.277476   -0.898686   -0.894912
      9          1           0       -1.277486   -0.899011    0.894572
     10          1           0       -0.000128    1.160065    0.817749
     11          1           0       -0.000119    1.160362   -0.817328
 ---------------------------------------------------------------------
                    Distance matrix (angstroms):
                    1          2          3          4          5
     1  N    0.000000
     2  C    1.509395   0.000000
     3  C    1.509377   2.538125   0.000000
     4  H    2.127805   1.090381   3.459327   0.000000
     5  H    2.122601   1.090032   2.770105   1.790634   0.000000
     6  H    2.122601   1.090032   2.770105   1.790634   1.789492
     7  H    2.127797   3.459337   1.090381   4.246459   3.749235
     8  H    2.122597   2.770114   1.090034   3.749238   3.119479
     9  H    2.122597   2.770114   1.090034   3.749238   2.555168
    10  H    1.025592   2.083777   2.083774   2.398334   2.424314
    11  H    1.025593   2.083777   2.083774   2.398334   2.967028
                    6          7          8          9         10
     6  H    0.000000
     7  H    3.749234   0.000000
     8  H    2.555167   1.790628   0.000000
     9  H    3.119479   1.790628   1.789484   0.000000
    10  H    2.967028   2.398346   2.967033   2.424322   0.000000
    11  H    2.424314   2.398345   2.424322   2.967033   1.635077
                   11
    11  H    0.000000
 Stoichiometry    C2H8N(1+)
 Framework group  C1[X(C2H8N)]
 Deg. of freedom    27
 Full point group                 C1      NOp   1
 RotChk:  IX=0 Diff= 3.77D-05
 Largest Abelian subgroup         C1      NOp   1
 Largest concise Abelian subgroup C1      NOp   1
                         Standard orientation:                         
 ---------------------------------------------------------------------
 Center     Atomic      Atomic             Coordinates (Angstroms)
 Number     Number       Type             X           Y           Z
 ---------------------------------------------------------------------
      1          7           0        0.000006    0.540916   -0.000098
      2          6           0       -1.269067   -0.276231    0.000043
      3          6           0        1.269059   -0.276229    0.000057
      4          1           0       -2.123227    0.401516   -0.000084
      5          1           0       -1.277578   -0.898910   -0.894590
      6          1           0       -1.277588   -0.898585    0.894902
      7          1           0        2.123232    0.401502   -0.000061
      8          1           0        1.277579   -0.898591    0.894912
      9          1           0        1.277590   -0.898916   -0.894572
     10          1           0        0.000002    1.160017   -0.817749
     11          1           0       -0.000007    1.160314    0.817328
 ---------------------------------------------------------------------
 Rotational constants (GHZ):          30.0956425           8.5812022           7.5954456
 Leave Link  202 at Sat Apr 25 17:05:34 2026, MaxMem=  7516192768 cpu:               0.2 elap:               0.0
 (Enter /opt/system/app/gaussian16/c02/l301.exe)
 Standard basis: 6-31++G(d,p) (6D, 7F)
 Ernie: Thresh=  0.10000D-02 Tol=  0.10000D-05 Strict=F.
 There are   105 symmetry adapted cartesian basis functions of A   symmetry.
 There are   105 symmetry adapted basis functions of A   symmetry.
   105 basis functions,   160 primitive gaussians,   105 cartesian basis functions
    13 alpha electrons       13 beta electrons
       nuclear repulsion energy        90.6404553448 Hartrees.
 IExCor=  402 DFT=T Ex+Corr=B3LYP ExCW=0 ScaHFX=  0.200000
 ScaDFX=  0.800000  0.720000  1.000000  0.810000 ScalE2=  1.000000  1.000000
 IRadAn=      5 IRanWt=     -1 IRanGd=            0 ICorTp=0 IEmpDi=  4
 NAtoms=   11 NActive=   11 NUniq=   11 SFac= 1.00D+00 NAtFMM=   60 NAOKFM=F Big=F
 Integral buffers will be    131072 words long.
 Raffenetti 2 integral format.
 Two-electron integral symmetry is turned on.
 Leave Link  301 at Sat Apr 25 17:05:34 2026, MaxMem=  7516192768 cpu:               0.2 elap:               0.0
 (Enter /opt/system/app/gaussian16/c02/l302.exe)
 NPDir=0 NMtPBC=     1 NCelOv=     1 NCel=       1 NClECP=     1 NCelD=      1
         NCelK=      1 NCelE2=     1 NClLst=     1 CellRange=     0.0.
 One-electron integrals computed using PRISM.
 One-electron integral symmetry used in STVInt
 NBasis=   105 RedAO= T EigKep=  7.82D-04  NBF=   105
 NBsUse=   105 1.00D-06 EigRej= -1.00D+00 NBFU=   105
 Precomputing XC quadrature grid using
 IXCGrd= 4 IRadAn=           5 IRanWt=          -1 IRanGd=           0 AccXCQ= 0.00D+00.
 Generated NRdTot=       0 NPtTot=           0 NUsed=           0 NTot=          32
 NSgBfM=   105   105   105   105   105 MxSgAt=    11 MxSgA2=    11.
 Leave Link  302 at Sat Apr 25 17:05:34 2026, MaxMem=  7516192768 cpu:               3.8 elap:               0.1
 (Enter /opt/system/app/gaussian16/c02/l303.exe)
 DipDrv:  MaxL=1.
 Leave Link  303 at Sat Apr 25 17:05:34 2026, MaxMem=  7516192768 cpu:               0.3 elap:               0.0
 (Enter /opt/system/app/gaussian16/c02/l401.exe)
 Initial guess from the checkpoint file:  "main.chk"
 B after Tr=     0.000000   -0.000000   -0.000000
         Rot=    1.000000   -0.000000    0.000000    0.000012 Ang=  -0.00 deg.
 Guess basis will be translated and rotated to current coordinates.
 JPrj=2 DoOrth=T DoCkMO=T.
 Leave Link  401 at Sat Apr 25 17:05:34 2026, MaxMem=  7516192768 cpu:               0.7 elap:               0.1
 (Enter /opt/system/app/gaussian16/c02/l502.exe)
 Keep R1 ints in memory in canonical form, NReq=67616555.
 FoFCou: FMM=F IPFlag=           0 FMFlag=           0 FMFlg1=           0
         NFxFlg=           0 DoJE=F BraDBF=F KetDBF=F FulRan=T
         wScrn=  0.000000 ICntrl=       600 IOpCl=  0 I1Cent=           0 NGrid=           0
         NMat0=    1 NMatS0=   5565 NMatT0=    0 NMatD0=    1 NMtDS0=    0 NMtDT0=    0
 Symmetry not used in FoFCou.
 Two-electron integral symmetry not used.
 Closed shell SCF:
 Using DIIS extrapolation, IDIIS=  1040.
 NGot=  7516192768 LenX=  7500675901 LenY=  7500664435
 Requested convergence on RMS density matrix=1.00D-08 within 128 cycles.
 Requested convergence on MAX density matrix=1.00D-06.
 Requested convergence on             energy=1.00D-06.
 No special actions if energy rises.

 Cycle   1  Pass 1  IDiag  1:
 E= -135.548950266243    
 DIIS: error= 3.40D-06 at cycle   1 NSaved=   1.
 NSaved= 1 IEnMin= 1 EnMin= -135.548950266243     IErMin= 1 ErrMin= 3.40D-06
 ErrMax= 3.40D-06  0.00D+00 EMaxC= 1.00D-01 BMatC= 1.71D-09 BMatP= 1.71D-09
 IDIUse=1 WtCom= 1.00D+00 WtEn= 0.00D+00
 Coeff-Com:  0.100D+01
 Coeff:      0.100D+01
 Gap=     0.528 Goal=   None    Shift=    0.000
 RMSDP=6.43D-07 MaxDP=9.42D-06              OVMax= 1.83D-05

 Cycle   2  Pass 1  IDiag  1:
 E= -135.548950268564     Delta-E=       -0.000000002321 Rises=F Damp=F
 DIIS: error= 9.96D-07 at cycle   2 NSaved=   2.
 NSaved= 2 IEnMin= 2 EnMin= -135.548950268564     IErMin= 2 ErrMin= 9.96D-07
 ErrMax= 9.96D-07  0.00D+00 EMaxC= 1.00D-01 BMatC= 1.06D-10 BMatP= 1.71D-09
 IDIUse=1 WtCom= 1.00D+00 WtEn= 0.00D+00
 Coeff-Com:  0.887D-01 0.911D+00
 Coeff:      0.887D-01 0.911D+00
 Gap=     0.404 Goal=   None    Shift=    0.000
 RMSDP=1.77D-07 MaxDP=2.79D-06 DE=-2.32D-09 OVMax= 3.52D-06

 Cycle   3  Pass 1  IDiag  1:
 E= -135.548950268620     Delta-E=       -0.000000000056 Rises=F Damp=F
 DIIS: error= 7.60D-07 at cycle   3 NSaved=   3.
 NSaved= 3 IEnMin= 3 EnMin= -135.548950268620     IErMin= 3 ErrMin= 7.60D-07
 ErrMax= 7.60D-07  0.00D+00 EMaxC= 1.00D-01 BMatC= 5.71D-11 BMatP= 1.06D-10
 IDIUse=1 WtCom= 1.00D+00 WtEn= 0.00D+00
 Coeff-Com: -0.103D-01 0.414D+00 0.597D+00
 Coeff:     -0.103D-01 0.414D+00 0.597D+00
 Gap=     0.404 Goal=   None    Shift=    0.000
 RMSDP=6.87D-08 MaxDP=1.91D-06 DE=-5.56D-11 OVMax= 1.98D-06

 Cycle   4  Pass 1  IDiag  1:
 E= -135.548950268661     Delta-E=       -0.000000000042 Rises=F Damp=F
 DIIS: error= 2.66D-07 at cycle   4 NSaved=   4.
 NSaved= 4 IEnMin= 4 EnMin= -135.548950268661     IErMin= 4 ErrMin= 2.66D-07
 ErrMax= 2.66D-07  0.00D+00 EMaxC= 1.00D-01 BMatC= 6.51D-12 BMatP= 5.71D-11
 IDIUse=1 WtCom= 1.00D+00 WtEn= 0.00D+00
 Coeff-Com: -0.122D-01 0.132D+00 0.312D+00 0.568D+00
 Coeff:     -0.122D-01 0.132D+00 0.312D+00 0.568D+00
 Gap=     0.404 Goal=   None    Shift=    0.000
 RMSDP=2.30D-08 MaxDP=5.74D-07 DE=-4.16D-11 OVMax= 6.63D-07

 Cycle   5  Pass 1  IDiag  1:
 E= -135.548950268666     Delta-E=       -0.000000000005 Rises=F Damp=F
 DIIS: error= 2.12D-08 at cycle   5 NSaved=   5.
 NSaved= 5 IEnMin= 5 EnMin= -135.548950268666     IErMin= 5 ErrMin= 2.12D-08
 ErrMax= 2.12D-08  0.00D+00 EMaxC= 1.00D-01 BMatC= 8.24D-14 BMatP= 6.51D-12
 IDIUse=1 WtCom= 1.00D+00 WtEn= 0.00D+00
 Coeff-Com: -0.357D-02 0.299D-01 0.833D-01 0.190D+00 0.700D+00
 Coeff:     -0.357D-02 0.299D-01 0.833D-01 0.190D+00 0.700D+00
 Gap=     0.404 Goal=   None    Shift=    0.000
 RMSDP=3.30D-09 MaxDP=7.16D-08 DE=-5.20D-12 OVMax= 9.33D-08

 SCF Done:  E(RB3LYP) =  -135.548950269     A.U. after    5 cycles
            NFock=  5  Conv=0.33D-08     -V/T= 2.0103
 KE= 1.341691681133D+02 PE=-4.880733364128D+02 EE= 1.277147626861D+02
 Leave Link  502 at Sat Apr 25 17:05:34 2026, MaxMem=  7516192768 cpu:              20.6 elap:               0.5
 (Enter /opt/system/app/gaussian16/c02/l701.exe)
 ... and contract with generalized density number  0.
 Compute integral first derivatives.
 Leave Link  701 at Sat Apr 25 17:05:35 2026, MaxMem=  7516192768 cpu:               4.4 elap:               0.1
 (Enter /opt/system/app/gaussian16/c02/l702.exe)
 L702 exits ... SP integral derivatives will be done elsewhere.
 Leave Link  702 at Sat Apr 25 17:05:35 2026, MaxMem=  7516192768 cpu:               0.2 elap:               0.0
 (Enter /opt/system/app/gaussian16/c02/l703.exe)
 Integral derivatives from FoFJK, PRISM(SPDF).
 Compute integral first derivatives, UseDBF=F ICtDFT=           0.
 Calling FoFJK, ICntrl=      2127 FMM=F ISym2X=0 I1Cent= 0 IOpClX= 0 NMat=1 NMatS=1 NMatT=0.
 FoFJK:  IHMeth= 1 ICntrl=    2127 DoSepK=F KAlg= 0 I1Cent=           0 FoldK=F
[...]
    A4        1.90381  -0.00000   0.00000  -0.00001  -0.00001   1.90380
    A5        1.90381  -0.00000   0.00000  -0.00001  -0.00001   1.90380
    A6        1.84508  -0.00000   0.00000  -0.00002  -0.00002   1.84506
    A7        1.89878   0.00000   0.00000   0.00002   0.00002   1.89880
    A8        1.89204   0.00000   0.00000   0.00001   0.00001   1.89205
    A9        1.89204   0.00000   0.00000   0.00001   0.00001   1.89205
   A10        1.92715  -0.00000   0.00000  -0.00002  -0.00002   1.92713
   A11        1.92715  -0.00000   0.00000  -0.00002  -0.00002   1.92713
   A12        1.92577  -0.00000   0.00000  -0.00001  -0.00001   1.92576
   A13        1.89879   0.00000   0.00000   0.00001   0.00001   1.89880
   A14        1.89205  -0.00000   0.00000  -0.00000  -0.00000   1.89205
   A15        1.89205  -0.00000   0.00000  -0.00000  -0.00000   1.89205
   A16        1.92714  -0.00000   0.00000  -0.00000  -0.00000   1.92713
   A17        1.92714  -0.00000   0.00000  -0.00000  -0.00000   1.92713
   A18        1.92576   0.00000   0.00000   0.00000   0.00000   1.92576
    D1        3.14159   0.00000   0.00000   0.00000   0.00000   3.14159
    D2       -1.04535   0.00000   0.00000   0.00000   0.00000  -1.04535
    D3        1.04535  -0.00000   0.00000  -0.00000  -0.00000   1.04535
    D4       -1.00371   0.00000   0.00000   0.00000   0.00000  -1.00371
    D5        1.09253   0.00000   0.00000   0.00001   0.00001   1.09254
    D6       -3.09996  -0.00000   0.00000   0.00000   0.00000  -3.09995
    D7        1.00371  -0.00000   0.00000  -0.00000  -0.00000   1.00371
    D8        3.09996   0.00000   0.00000  -0.00000  -0.00000   3.09995
    D9       -1.09253  -0.00000   0.00000  -0.00001  -0.00001  -1.09254
   D10       -3.14159  -0.00000   0.00000  -0.00000  -0.00000  -3.14159
   D11       -1.04535   0.00000   0.00000  -0.00000  -0.00000  -1.04535
   D12        1.04535  -0.00000   0.00000   0.00000   0.00000   1.04535
   D13        1.00372  -0.00000   0.00000  -0.00001  -0.00001   1.00371
   D14        3.09997  -0.00000   0.00000  -0.00001  -0.00001   3.09995
   D15       -1.09252  -0.00000   0.00000  -0.00001  -0.00001  -1.09254
   D16       -1.00372   0.00000   0.00000   0.00001   0.00001  -1.00371
   D17        1.09252   0.00000   0.00000   0.00001   0.00001   1.09254
   D18       -3.09997   0.00000   0.00000   0.00001   0.00001  -3.09995
         Item               Value     Threshold  Converged?
 Maximum Force            0.000007     0.000015     YES
 RMS     Force            0.000001     0.000010     YES
 Maximum Displacement     0.000023     0.000060     YES
 RMS     Displacement     0.000007     0.000040     YES
 Predicted change in Energy=-2.838270D-10
 Optimization completed.
    -- Stationary point found.
                           ----------------------------
                           !   Optimized Parameters   !
                           ! (Angstroms and Degrees)  !
 --------------------------                            --------------------------
 ! Name  Definition              Value          Derivative Info.                !
 --------------------------------------------------------------------------------
 ! R1    R(1,2)                  1.5094         -DE/DX =    0.0                 !
 ! R2    R(1,3)                  1.5094         -DE/DX =    0.0                 !
 ! R3    R(1,10)                 1.0256         -DE/DX =    0.0                 !
 ! R4    R(1,11)                 1.0256         -DE/DX =    0.0                 !
 ! R5    R(2,4)                  1.0904         -DE/DX =    0.0                 !
 ! R6    R(2,5)                  1.09           -DE/DX =    0.0                 !
 ! R7    R(2,6)                  1.09           -DE/DX =    0.0                 !
 ! R8    R(3,7)                  1.0904         -DE/DX =    0.0                 !
 ! R9    R(3,8)                  1.09           -DE/DX =    0.0                 !
 ! R10   R(3,9)                  1.09           -DE/DX =    0.0                 !
 ! A1    A(2,1,3)              114.4453         -DE/DX =    0.0                 !
 ! A2    A(2,1,10)             109.0791         -DE/DX =    0.0                 !
 ! A3    A(2,1,11)             109.0791         -DE/DX =    0.0                 !
 ! A4    A(3,1,10)             109.0801         -DE/DX =    0.0                 !
 ! A5    A(3,1,11)             109.0801         -DE/DX =    0.0                 !
 ! A6    A(10,1,11)            105.7153         -DE/DX =    0.0                 !
 ! A7    A(1,2,4)              108.7921         -DE/DX =    0.0                 !
 ! A8    A(1,2,5)              108.4059         -DE/DX =    0.0                 !
 ! A9    A(1,2,6)              108.4059         -DE/DX =    0.0                 !
 ! A10   A(4,2,5)              110.4174         -DE/DX =    0.0                 !
 ! A11   A(4,2,6)              110.4174         -DE/DX =    0.0                 !
 ! A12   A(5,2,6)              110.3387         -DE/DX =    0.0                 !
 ! A13   A(1,3,7)              108.7927         -DE/DX =    0.0                 !
 ! A14   A(1,3,8)              108.4068         -DE/DX =    0.0                 !
 ! A15   A(1,3,9)              108.4068         -DE/DX =    0.0                 !
 ! A16   A(7,3,8)              110.4168         -DE/DX =    0.0                 !
 ! A17   A(7,3,9)              110.4168         -DE/DX =    0.0                 !
 ! A18   A(8,3,9)              110.3377         -DE/DX =    0.0                 !
 ! D1    D(3,1,2,4)            180.0            -DE/DX =    0.0                 !
 ! D2    D(3,1,2,5)            -59.894          -DE/DX =    0.0                 !
 ! D3    D(3,1,2,6)             59.894          -DE/DX =    0.0                 !
 ! D4    D(10,1,2,4)           -57.5085         -DE/DX =    0.0                 !
 ! D5    D(10,1,2,5)            62.5975         -DE/DX =    0.0                 !
 ! D6    D(10,1,2,6)          -177.6145         -DE/DX =    0.0                 !
 ! D7    D(11,1,2,4)            57.5085         -DE/DX =    0.0                 !
 ! D8    D(11,1,2,5)           177.6144         -DE/DX =    0.0                 !
 ! D9    D(11,1,2,6)           -62.5975         -DE/DX =    0.0                 !
 ! D10   D(2,1,3,7)           -180.0            -DE/DX =    0.0                 !
 ! D11   D(2,1,3,8)            -59.894          -DE/DX =    0.0                 !
 ! D12   D(2,1,3,9)             59.894          -DE/DX =    0.0                 !
 ! D13   D(10,1,3,7)            57.5091         -DE/DX =    0.0                 !
 ! D14   D(10,1,3,8)           177.6151         -DE/DX =    0.0                 !
 ! D15   D(10,1,3,9)           -62.597          -DE/DX =    0.0                 !
 ! D16   D(11,1,3,7)           -57.5091         -DE/DX =    0.0                 !
 ! D17   D(11,1,3,8)            62.597          -DE/DX =    0.0                 !
 ! D18   D(11,1,3,9)          -177.6151         -DE/DX =    0.0                 !
 --------------------------------------------------------------------------------
 GradGradGradGradGradGradGradGradGradGradGradGradGradGradGradGradGradGrad

 Leave Link  103 at Sat Apr 25 17:05:42 2026, MaxMem=  7516192768 cpu:               0.4 elap:               0.0
 (Enter /opt/system/app/gaussian16/c02/l9999.exe)

 ----------------------------------------------------------------------

 Electric dipole moment (input orientation):
 (Debye = 10**-18 statcoulomb cm , SI units = C m)
                  (au)            (Debye)         (10**-30 SI)
   Tot        0.598791D+00      0.152198D+01      0.507677D+01
   x         -0.542558D-04     -0.137904D-03     -0.460000D-03
   y          0.598791D+00      0.152198D+01      0.507677D+01
   z          0.108725D-03      0.276350D-03      0.921806D-03

 Dipole polarizability, Alpha (input orientation).
 (esu units = cm**3 , SI units = C**2 m**2 J**-1)
 Alpha(0;0):
               (au)            (10**-24 esu)      (10**-40 SI)
   iso        0.296056D+02      0.438709D+01      0.488130D+01
   aniso      0.515961D+01      0.764575D+00      0.850705D+00
   xx         0.330078D+02      0.489126D+01      0.544226D+01
   yx         0.499848D-03      0.740698D-04      0.824138D-04
   yy         0.283430D+02      0.419999D+01      0.467312D+01
   zx         0.305136D-04      0.452165D-05      0.503101D-05
   zy         0.158334D-03      0.234626D-04      0.261057D-04
   zz         0.274659D+02      0.407003D+01      0.452852D+01

 ----------------------------------------------------------------------

 Dipole orientation:
     7         -0.00002719         -0.00000055          1.02227234
     6          2.39820559          0.00020366         -0.52186032
     6         -2.39815586         -0.00020456         -0.52195715
     1          4.01230871          0.00034143          0.75892823
     1          2.41446754         -1.69062037         -1.69824587
     1          2.41417926          1.69103017         -1.69824617
     1         -4.01233586         -0.00034153          0.75873581
     1         -2.41438677          1.69061154         -1.69835895
     1         -2.41409940         -1.69102368         -1.69835873
     1          0.00009626         -1.54492444          2.19248548
     1         -0.00016673          1.54492336          2.19248553

 Electric dipole moment (dipole orientation):
 (Debye = 10**-18 statcoulomb cm , SI units = C m)
                  (au)            (Debye)         (10**-30 SI)
   Tot        0.598791D+00      0.152198D+01      0.507677D+01
   x          0.000000D+00      0.000000D+00      0.000000D+00
   y          0.000000D+00      0.000000D+00      0.000000D+00
   z          0.598791D+00      0.152198D+01      0.507677D+01

 Dipole polarizability, Alpha (dipole orientation).
 (esu units = cm**3 , SI units = C**2 m**2 J**-1)
 Alpha(0;0):
               (au)            (10**-24 esu)      (10**-40 SI)
   iso        0.296056D+02      0.438709D+01      0.488130D+01
   aniso      0.515961D+01      0.764575D+00      0.850705D+00
   xx         0.330078D+02      0.489126D+01      0.544226D+01
   yx         0.471633D-03      0.698888D-04      0.777618D-04
   yy         0.274659D+02      0.407003D+01      0.452852D+01
   zx         0.771755D-04      0.114362D-04      0.127245D-04
   zy         0.000000D+00      0.000000D+00      0.000000D+00
   zz         0.283430D+02      0.419999D+01      0.467312D+01

 ----------------------------------------------------------------------

 Test job not archived.
 1\1\GINC-XA0003\Freq\RB3LYP\6-31++G(d,p)\C2H8N1(1+)\B39027\25-Apr-2026
 \0\\#P Geom=AllCheck Guess=TCheck SCRF=Check Test GenChk RB3LYP/6-31++
 G(d,p) Freq\\ROSDSFDQCJNGOL-UHFFFAOYSA-O\\1,1\N,-0.0000634064,0.540963
 2108,0.0000985138\C,1.2691007693,-0.276041597,-0.0000429257\C,-1.26902
 44038,-0.2763228087,-0.0000568885\H,2.1231859425,0.4017998967,0.000084
 6263\H,1.2776815676,-0.8987196972,0.8945903497\H,1.277691129,-0.898394
 9296,-0.8949020285\H,-2.1232730792,0.401313308,0.0000612468\H,-1.27747
 5966,-0.8986861265,-0.8949120309\H,-1.2774860101,-0.8990109359,0.89457
 22395\H,-0.0001282498,1.1600648823,0.8177494593\H,-0.000119293,1.16036
 17973,-0.817327562\\Version=ES64L-G16RevC.02\State=1-A\HF=-135.5489503
 \RMSD=2.082e-09\RMSF=2.986e-06\ZeroPoint=0.1080589\Thermal=0.1125558\E
 Tot=-135.4363945\HTot=-135.4354503\GTot=-135.4666229\Dipole=-0.0000543
 ,0.5987914,0.0001087\DipoleDeriv=-0.3935705,-0.0000095,-0.0000015,-0.0
 000066,-0.2566471,-0.0000234,-0.0000015,-0.0000235,-0.1274621,0.368232
 9,-0.1430996,-0.0000246,-0.2465145,0.1971291,0.0000145,-0.0000433,0.00
 0015,0.1099176,0.3681258,0.1431323,0.0000274,0.2465471,0.197207,0.0000
 172,0.0000462,0.0000166,0.109913,0.0375333,0.0060617,0.0000006,-0.0227
 006,0.0238853,-0.0000188,-0.0000046,-0.0000186,0.1267665,0.0664176,-0.
 0112595,0.0680485,0.0288465,0.0864652,0.0192611,0.0256008,0.0409857,0.
 0379118,0.0664186,-0.0112344,-0.0680522,0.028856,0.0864871,-0.0192432,
 -0.02559,-0.0409682,0.0378889,0.0375275,-0.0060552,-0.0000016,0.022704
 4,0.023891,-0.0000185,0.0000036,-0.0000187,0.1267684,0.0664235,0.01122
 99,0.0680561,-0.0288603,0.0864835,-0.0192314,0.0256004,-0.0409644,0.03
 78881,0.0664245,0.0112541,-0.0680517,-0.0288512,0.0864616,0.0192487,-0
 .0256106,0.0409822,0.037909,0.1582334,-0.00001,-0.0000026,-0.0000106,0
 .23431,0.0202435,-0.0000042,0.0273924,0.251258,0.1582334,-0.0000097,0.
 0000016,-0.0000103,0.2343273,-0.0202497,0.0000032,-0.0273985,0.2512407
 \Polar=33.0078262,0.0004998,28.3429608,0.0000305,0.0001583,27.4659023\
 Quadrupole=1.3070838,-0.0902638,-1.2168201,0.0001851,0.0000139,0.00020
 44\PG=C01 [X(C2H8N1)]\NImag=0\\0.45660686,-0.00000397,0.63368548,-0.00
 000165,-0.00002264,0.75823030,-0.13412255,0.03186477,0.00000560,0.4798
 5943,0.02941528,-0.11974549,-0.00000369,0.09922826,0.57256612,0.000005
 13,-0.00000365,-0.09856746,0.00001721,-0.00001028,0.63263738,-0.134126
 31,-0.03187968,-0.00000599,-0.03162617,-0.01167610,-0.00000230,0.47992
 651,-0.02942948,-0.11976617,-0.00000402,0.01166465,0.01788903,0.000003
 13,-0.09923191,0.57252542,-0.00000552,-0.00000401,-0.09856841,0.000001
 94,0.00000300,0.00101825,-0.00001888,-0.00001135,0.63262835,-0.0263440
 7,-0.01527251,-0.00000291,-0.21464784,-0.13297777,-0.00002500,-0.00220
 618,0.00509505,0.00000091,0.23708976,0.02540472,0.01396161,0.00000298,
 -0.14627227,-0.16952743,-0.00002229,0.00215383,-0.00356205,-0.00000066
 ,0.14364424,0.17362723,0.00000448,0.00000276,-0.00167792,-0.00002741,-
 0.00002222,-0.05105038,0.00000038,-0.00000065,0.00015548,0.00002708,0.
 00002380,0.04674401,-0.00692335,0.02264470,-0.02838555,-0.05012475,-0.
 00747445,0.00998963,0.00230700,0.00121764,-0.00129684,0.00334693,-0.01
 274539,0.02139745,0.05602754,0.00332131,-0.01395920,0.01577899,-0.0004
 4251,-0.13844695,0.12765073,-0.00131316,0.00053361,-0.00042577,0.00096
 004,-0.00894391,0.01539762,-0.00455758,0.14786635,0.00093388,-0.003318
 31,0.00403879,-0.00006652,0.13407488,-0.24644661,-0.00003797,-0.000384
 85,0.00018487,0.00029099,-0.00258612,0.00240522,-0.00222078,-0.1422146
 5,0.25510683,-0.00692365,0.02263433,0.02839364,-0.05012464,-0.00746940
 ,-0.00999026,0.00230699,0.00121718,0.00129731,0.00334716,-0.01273766,-
 0.02140207,0.00029879,-0.00087653,0.00059976,0.05602750,0.00332183,-0.
 01395467,-0.01578548,-0.00044119,-0.13835201,-0.12761159,-0.00131319,0
 .00053331,0.00042588,0.00096030,-0.00893926,-0.01540172,-0.00087648,0.
 01361851,0.01555638,-0.00455988,0.14776318,-0.00093279,0.00331202,0.00
 403456,0.00006843,-0.13403581,-0.24654185,0.00003751,0.00038499,0.0001
 8518,-0.00029063,0.00258187,0.00240034,-0.00059988,-0.01554517,-0.0172
 8963,0.00221702,0.14217572,0.25521023,-0.02634235,0.01526332,0.0000026
 4,-0.00220418,-0.00509473,-0.00000094,-0.21471394,0.13296571,0.0000232
 0,-0.00096772,0.00118540,0.00000021,0.00008928,-0.00007041,-0.00006185
 ,0.00008928,-0.00007043,0.00006182,0.23715809,-0.02541419,0.01395948,0
 .00000270,-0.00215346,-0.00356359,-0.00000069,0.14626016,-0.16946017,-
 0.00002067,-0.00118584,0.00101414,0.00000009,-0.00018620,-0.00003815,-
 0.00023677,-0.00018610,-0.00003830,0.00023670,-0.14362819,0.17355830,-
 0.00000475,0.00000293,-0.00167792,-0.00000040,-0.00000070,0.00015553,0
 .00002561,-0.00002075,-0.05104983,-0.00000022,0.00000010,0.00049717,0.
 00027479,-0.00017011,0.00016024,-0.00027485,0.00017003,0.00016039,-0.0
 0002499,0.00002221,0.04674389,-0.00691723,-0.02263270,-0.02839051,0.00
 230693,-0.00121675,-0.00129736,-0.05012724,0.00748884,0.01001936,0.000
 08923,0.00018611,0.00027479,-0.00025409,0.00013472,-0.00001729,-0.0004
 4409,0.00022706,0.00044014,0.00334412,0.01274066,0.02140572,0.05602603
 ,-0.00331991,-0.01396057,-0.01579203,0.00131357,0.00053332,0.00042561,
 0.00046054,-0.13835087,-0.12760843,0.00007046,-0.00003824,0.00017010,-
 0.00013479,0.00010112,0.00011366,-0.00022731,0.00053611,-0.00000017,-0
 .00095722,-0.00893680,-0.01539694,0.00453922,0.14776621,0.00093181,0.0
 0331210,0.00403437,-0.00003752,0.00038494,0.00018517,-0.00003791,-0.13
 403483,-0.24653728,-0.00006187,0.00023669,0.00016040,-0.00001731,-0.00
 011356,-0.00017662,-0.00044017,-0.00000027,0.00019559,0.00029008,0.002
 58191,0.00240034,-0.00224937,0.14217439,0.25520639,-0.00691753,-0.0226
 4299,0.02838219,0.00230691,-0.00121720,0.00129694,-0.05012714,0.007490
 96,-0.01001443,0.00008923,0.00018621,-0.00027473,-0.00044408,0.0002272
 1,-0.00044006,-0.00025409,0.00013471,0.00001734,0.00334437,0.01274845,
 -0.02140108,0.00029841,0.00087333,0.00060356,0.05602597,-0.00331974,-0
 .01396510,0.01578546,0.00131356,0.00053362,-0.00042547,0.00045907,-0.1
 3844580,0.12764756,0.00007044,-0.00003810,-0.00017017,-0.00022746,0.00
 053610,0.00000029,-0.00013480,0.00010112,-0.00011356,-0.00095730,-0.00
 894146,0.01539281,0.00087372,0.01361873,-0.01554506,0.00454002,0.14786
 938,-0.00093314,-0.00331889,0.00403921,0.00003802,-0.00038483,0.000184
 89,0.00004031,0.13407404,-0.24644222,0.00006189,-0.00023676,0.00016024
 ,0.00044007,0.00000039,0.00019559,0.00001727,0.00011367,-0.00017662,-0
 .00029042,-0.00258589,0.00240474,-0.00060305,0.01555629,-0.01729028,0.
 00224876,-0.14221318,0.25510304,-0.05399484,0.00001324,0.00001839,-0.0
 0081172,0.01923673,0.02586630,-0.00080662,-0.01923463,-0.02586362,0.00
 010174,-0.00050272,0.00069766,0.00111052,-0.00029575,-0.00040400,-0.00
 543376,0.00291317,-0.00142286,0.00010153,0.00050248,-0.00069770,-0.005
 43239,-0.00291413,0.00142262,0.00111030,0.00029608,0.00040404,0.063979
 43,0.00001299,-0.18306811,-0.16729570,0.00196199,-0.01094095,-0.014621
 13,-0.00195931,-0.01094580,-0.01462711,-0.00068224,0.00122293,0.000307
 48,-0.00068187,-0.00031962,-0.00000714,0.00302219,-0.00094865,0.000996
 66,0.00068196,0.00122320,0.00030736,-0.00302321,-0.00094991,0.00099701
 ,0.00068218,-0.00031937,-0.00000705,-0.00001281,0.18808097,0.00001738,
 -0.16038616,-0.28700234,0.00220482,0.00159768,0.00421033,-0.00220527,0
 .00159715,0.00421030,0.00021607,0.00009119,0.00010280,-0.00042832,0.00
 080931,0.00072171,-0.00084573,0.00116707,0.00110039,-0.00021606,0.0000
 9114,0.00010280,0.00084543,0.00116728,0.00110050,0.00042811,0.00080939
 ,0.00072172,-0.00001875,0.17349530,0.29898763,-0.05399496,0.00001149,-
 0.00001583,-0.00081141,0.01924613,-0.02585936,-0.00080691,-0.01924400,
 0.02585657,0.00010176,-0.00050247,-0.00069784,-0.00543378,0.00291266,0
 .00142384,0.00111051,-0.00029589,0.00040390,0.00010152,0.00050223,0.00
 069788,0.00111031,0.00029624,-0.00040392,-0.00543236,-0.00291360,-0.00
 142375,0.00007581,-0.00000188,0.00000233,0.06397952,0.00001116,-0.1831
 8726,0.16733342,0.00196262,-0.01094566,0.01461563,-0.00196026,-0.01095
 052,0.01462156,-0.00068216,0.00122308,-0.00030708,0.00302189,-0.000947
 86,-0.00099737,-0.00068202,-0.00031933,0.00000676,0.00068189,0.0012233
 4,-0.00030694,0.00068233,-0.00031908,0.00000668,-0.00302289,-0.0009491
 3,-0.00099779,-0.00000166,0.01696532,-0.02043936,-0.00001091,0.1882071
 0,-0.00001482,0.16042384,-0.28688318,-0.00220416,-0.00160297,0.0042147
 5,0.00220450,-0.00160287,0.00421533,-0.00021631,-0.00009079,0.00010265
 ,0.00084676,-0.00116778,0.00109963,0.00042808,-0.00080969,0.00072143,0
 .00021631,-0.00009073,0.00010267,-0.00042786,-0.00080977,0.00072142,-0
 .00084660,-0.00116806,0.00109968,-0.00000206,0.02045433,-0.02425584,0.
 00001617,-0.17353551,0.29886146\\-0.00000720,0.00000929,0.00000002,0.0
 0000964,-0.00000663,-0.00000001,-0.00000140,-0.00000153,-0.00000002,-0
 .00000135,0.00000141,0.,-0.00000111,0.00000045,0.00000027,-0.00000111,
 0.00000047,-0.00000025,0.00000084,0.00000073,0.,-0.00000006,-0.0000006
 4,-0.00000018,-0.00000005,-0.00000067,0.00000021,0.00000090,-0.0000014
 5,0.00000022,0.00000090,-0.00000144,-0.00000024\\\@


 You can't act like a skunk without someone's getting wind of it.
 -- Lorene Workman
 Job cpu time:       0 days  0 hours  4 minutes 21.9 seconds.
 Elapsed time:       0 days  0 hours  0 minutes  6.0 seconds.
 File lengths (MBytes):  RWF=     15 Int=      0 D2E=      0 Chk=      2 Scr=      1
 Normal termination of Gaussian 16 at Sat Apr 25 17:05:42 2026.
